Li192 P32 S160 I32
1.0
20.433000 0.000000 0.000000
0.000000 20.433000 0.000000
0.000000 0.000000 20.433000
Li I S P
192 32 160 32
Direct configuration=      1
0.11407225 0.99660938 0.00965392
0.02449470 0.04727564 0.38349618
0.00929776 0.61432271 0.04319119
0.98747877 0.42266718 0.58184810
0.56385850 0.91052757 0.01710051
0.56400302 0.92028167 0.50877402
0.47807172 0.48423296 0.09942670
0.56375438 0.59404604 0.49000647
0.25160517 0.56901606 0.16913542
0.25359729 0.39530741 0.75639318
0.25047971 0.88579096 0.25549138
0.22015263 0.00223372 0.87929039
0.82266256 0.51460236 0.34519932
0.83610206 0.47502931 0.67041911
0.83463547 0.00300773 0.33368513
0.72751179 0.01085032 0.86022170
0.12144297 0.30137582 0.25153728
0.01342069 0.24724989 0.63996995
0.07631886 0.75769662 0.15095882
0.93296508 0.76852996 0.66772713
0.57155141 0.16155786 0.24495648
0.49358371 0.34443474 0.66843687
0.49730990 0.82277742 0.16106812
0.48561227 0.78589162 0.86594120
0.36081728 0.50235425 0.29669110
0.24022768 0.61531088 0.72415516
0.27129304 0.11146798 0.21114917
0.26900429 0.96898742 0.63617338
0.77189410 0.38691503 0.26060288
0.83674791 0.50101914 0.84741017
0.67241008 0.99140616 0.16680133
0.77932697 0.99891924 0.64195700
0.91375542 0.19030684 0.23469044
0.95054480 0.25997864 0.86485277
0.98952505 0.77008820 0.35821663
0.07566000 0.75102248 0.85065557
0.42993000 0.34363908 0.24991403
0.49029980 0.17043431 0.67713315
0.52086222 0.68044703 0.33639323
0.50605948 0.75280091 0.63997755
0.97266750 0.39913669 0.44779656
0.96442451 0.46605310 0.11881414
0.00181647 0.10207826 0.53111102
0.99475110 0.94053666 0.09313314
0.59835118 0.40750700 0.50542824
0.41661480 0.39739322 0.98284602
0.42773478 0.91414357 0.47653103
0.41144231 0.92367312 0.99491228
0.02885700 0.27852791 0.13231909
0.06261722 0.16828597 0.74994657
0.95706965 0.65048574 0.22621335
0.07053812 0.65627813 0.74752375
0.47820762 0.26416597 0.14161654
0.61333912 0.26652745 0.73068219
0.49521652 0.65950129 0.19398403
0.52292229 0.64606389 0.77598910
0.32604149 0.24024928 0.58332293
0.24738369 0.13027014 0.01445529
0.16153554 0.77743907 0.57156552
0.35529403 0.72394931 0.01062835
0.72780158 0.23595547 0.38328121
0.75568936 0.17533747 0.09320292
0.76526467 0.66352989 0.54526674
0.75633508 0.66788850 0.90804809
0.01303315 0.23511116 0.35621362
0.93324328 0.34655026 0.77272732
0.94525955 0.82222166 0.19171975
0.95822245 0.84721848 0.77941653
0.49661432 0.26687395 0.36858900
0.49723649 0.34488997 0.81629268
0.50673349 0.83059133 0.32969465
0.51003859 0.85320582 0.73116480
0.40390286 0.09503573 0.51832089
0.54426472 0.00256516 0.89895356
0.48620565 0.46754560 0.38568668
0.58004255 0.40512096 0.98478056
0.12073834 0.97291055 0.48823154
0.99841903 0.91431147 0.91978840
0.10457765 0.45203504 0.51740322
0.12480238 0.50483960 0.03370797
0.42109991 0.08502228 0.00324755
0.50256436 0.00577665 0.61105638
0.51975919 0.53611696 0.89520070
0.44300012 0.41092133 0.53161618
0.88791386 0.98250760 0.00068984
0.98881770 0.93201726 0.39855270
0.03462296 0.38525727 0.99795001
0.99973801 0.59162537 0.43387800
0.57191070 0.07958905 0.03246709
0.58892624 0.07975166 0.51065375
0.58399242 0.58256956 0.00913093
0.39558237 0.57651714 0.49529762
0.01513195 0.07885748 0.89521169
0.89579302 0.98886675 0.49721460
0.03382196 0.52841636 0.90486076
0.00564696 0.58522955 0.58060801
0.33450070 0.98972643 0.33571299
0.36902923 0.00243284 0.76425488
0.24817835 0.58284564 0.32744194
0.14002583 0.48992577 0.74761501
0.71601126 0.10553607 0.26754636
0.82111741 0.90892258 0.76747488
0.67198618 0.51507604 0.16581625
0.67061948 0.49391994 0.65953682
0.15827110 0.02504481 0.18992399
0.13962430 0.97038636 0.74258789
0.27485501 0.42314191 0.16920298
0.35896642 0.51555250 0.72584241
0.78797390 0.88495146 0.26026967
0.65595609 0.09726386 0.75532901
0.65677179 0.50023689 0.34042413
0.78151536 0.60895055 0.71330515
0.33761143 0.24250925 0.91128355
0.33008812 0.24010706 0.41072608
0.24705328 0.83427670 0.92005275
0.33531464 0.74378756 0.59966358
0.86209243 0.24985420 0.00337488
0.77713720 0.27764753 0.60572347
0.86066139 0.78170445 0.99593383
0.78459127 0.67543116 0.41441153
0.15610923 0.27410326 0.01877789
0.16462460 0.25378800 0.42494838
0.22664160 0.68709979 0.09590778
0.16534910 0.74578830 0.39650557
0.64027150 0.25288965 0.98901572
0.63225774 0.25383350 0.54374638
0.63823831 0.77613681 0.01871162
0.75639098 0.80863122 0.59958130
0.59269387 0.32818179 0.23231735
0.36650373 0.27165361 0.75494558
0.39407665 0.74007592 0.27242390
0.61722728 0.74455812 0.72669436
0.96557059 0.34948438 0.27452367
0.90007333 0.18170211 0.73773566
0.08775438 0.66884253 0.26901448
0.93359778 0.67330383 0.82476613
0.98560942 0.10442767 0.03889753
0.01123930 0.95196126 0.58429980
0.90018351 0.52809320 0.99300706
0.87968171 0.51845436 0.52346971
0.48039036 0.00268113 0.10973305
0.49990162 0.03131406 0.39443784
0.43782933 0.58887831 0.02314717
0.48515914 0.52169753 0.60443583
0.21522164 0.05330076 0.34826163
0.25190334 0.10684009 0.75259326
0.14696544 0.49314299 0.31936636
0.25224015 0.49214780 0.62372421
0.66003039 0.00469376 0.34070008
0.80524852 0.09989270 0.73451115
0.74464463 0.60875662 0.27340726
0.65699469 0.52110083 0.80228553
0.09534774 0.16528694 0.23073747
0.07626267 0.33908153 0.74082896
0.07006687 0.86399333 0.25309374
0.09221267 0.78261085 0.69747819
0.43139664 0.16040293 0.23892000
0.51159238 0.18560055 0.85207727
0.61563484 0.74397525 0.24828861
0.38231373 0.71218891 0.74052218
0.27566030 0.35548332 0.98632433
0.26808260 0.36508616 0.48376951
0.14578880 0.81297613 0.03511281
0.31392167 0.72253645 0.42463082
0.75553090 0.33586703 0.91781357
0.75920209 0.37244325 0.48635873
0.75734686 0.83062857 0.08496058
0.75970409 0.84734330 0.41004249
0.27094717 0.39282033 0.31549068
0.23902954 0.52377457 0.85440947
0.34763321 0.98671537 0.18941667
0.25373447 0.88680130 0.77813227
0.80302524 0.51079953 0.14804511
0.76147643 0.38368276 0.77280357
0.83878866 0.02328987 0.17683282
0.66432967 0.93165140 0.71619169
0.30985379 0.23778791 0.10985778
0.19228534 0.24234136 0.59195113
0.28877976 0.81804095 0.08702320
0.28642924 0.85588840 0.48686477
0.74354354 0.33378987 0.06151994
0.75277935 0.14092321 0.52642837
0.77852311 0.70430148 0.08255602
0.86749100 0.75043016 0.51346629
0.24883832 0.13410656 0.49693327
0.21582102 0.23926877 0.89234442
0.21325640 0.64244379 0.48614689
0.22335683 0.66970020 0.95331041
0.86572973 0.26492523 0.48568895
0.75404610 0.15629095 0.93453232
0.63787654 0.74495501 0.49248387
0.73073038 0.86072010 0.91699951
0.11478571 0.13954493 0.37294977
0.13746230 0.11224875 0.90647261
0.12661766 0.61145739 0.38246064
0.13095635 0.61848835 0.86025156
0.63186306 0.12797800 0.36935092
0.62513657 0.12581526 0.88858237
0.62939000 0.63675617 0.37654114
0.61469144 0.62936479 0.86946449
0.39358125 0.37215443 0.37759358
0.33729424 0.37163574 0.87080615
0.35916620 0.87470218 0.36283317
0.36842516 0.87337437 0.87232731
0.86235583 0.37557496 0.38410402
0.87437965 0.37610966 0.89352586
0.88003956 0.86912319 0.35533752
0.86494554 0.88192278 0.90084076
0.37683072 0.12111607 0.12271699
0.34921833 0.11011495 0.63377056
0.35796501 0.63112623 0.13492266
0.35174619 0.62195249 0.62372266
0.88308951 0.13621908 0.12073481
0.87207232 0.12116394 0.59957323
0.88758950 0.62085636 0.10157586
0.86981969 0.62836531 0.60994552
0.13949416 0.37439801 0.11337357
0.11945954 0.37854385 0.62773396
0.12183608 0.89099524 0.13635534
0.11990007 0.89217201 0.62822862
0.62633349 0.38381154 0.11408944
0.62303438 0.37842437 0.63359407
0.63165921 0.85761109 0.13176167
0.61570659 0.86009892 0.62463216
0.04504191 0.43689032 0.32330568
0.05650218 0.43906417 0.81346169
0.05734179 0.96464797 0.30714710
0.04497072 0.94788181 0.82018370
0.56678623 0.44472792 0.29634291
0.56785307 0.42828972 0.80068536
0.56264746 0.94539961 0.31941415
0.58075380 0.93413078 0.79330146
0.43663453 0.05844832 0.30249575
0.46232920 0.05266243 0.81952437
0.45882155 0.57096364 0.31107254
0.44490911 0.55179692 0.79339281
0.94235545 0.07791490 0.30552839
0.93682230 0.07365439 0.79647475
0.93513000 0.56295489 0.33147486
0.94116183 0.54938112 0.82041151
0.43482101 0.44606452 0.20439591
0.44586657 0.44226265 0.68485452
0.44660562 0.93654945 0.19885170
0.45496750 0.94857572 0.69472931
0.91619676 0.44373029 0.21364622
0.93760179 0.43478722 0.69468641
0.93014541 0.94690717 0.19513104
0.93024390 0.93544366 0.71420587
0.04734147 0.06735629 0.17933828
0.05708751 0.05560231 0.68800080
0.04457372 0.55765936 0.20668259
0.04989875 0.55689083 0.69192475
0.56302868 0.05268509 0.19378522
0.57112652 0.06158769 0.69219800
0.55930865 0.55655203 0.17910675
0.56791661 0.55914535 0.69634603
0.30826701 0.06831674 0.42858444
0.31669835 0.03915970 0.96089715
0.31096751 0.55507280 0.42227414
0.31707981 0.56091016 0.94716075
0.80669294 0.05032916 0.44333468
0.79654953 0.04431670 0.94590053
0.80126987 0.56443225 0.44998280
0.80004534 0.55850939 0.93037269
0.31121624 0.43679610 0.05728269
0.32432846 0.44505205 0.54399768
0.31383349 0.93344285 0.09291537
0.33841646 0.95105625 0.53954369
0.81601620 0.45038733 0.05035800
0.78826951 0.44633460 0.56704520
0.79446535 0.94615442 0.07697491
0.80912266 0.92323153 0.54693198
0.20379214 0.43222721 0.42074163
0.19765973 0.45366672 0.94206153
0.20980551 0.94230686 0.42793189
0.19681340 0.93211030 0.97609172
0.68184684 0.44878491 0.45028007
0.69045651 0.43483671 0.93703226
0.68505281 0.93976208 0.44088377
0.67021579 0.94191612 0.96062918
0.20041303 0.05618561 0.08231031
0.19653819 0.04383984 0.54693079
0.20252675 0.57119805 0.06253078
0.18896144 0.54464729 0.54567298
0.68672189 0.06644627 0.07032709
0.68976803 0.04984153 0.55643851
0.69804905 0.55601245 0.05498557
0.68599384 0.57852943 0.56376898
0.41959332 0.30311976 0.04189092
0.43076603 0.29896860 0.57503749
0.43756359 0.81259069 0.05880865
0.43767102 0.80066739 0.55666936
0.94928221 0.30738521 0.05149094
0.94917834 0.30684748 0.55859832
0.94746919 0.80553244 0.07530773
0.94585452 0.82426844 0.55999279
0.07394258 0.30818789 0.44213272
0.06170137 0.29392465 0.92221055
0.05763921 0.82348493 0.44813447
0.06415074 0.82477327 0.94539971
0.55791432 0.30918200 0.46232149
0.53990116 0.29717246 0.93633384
0.55567918 0.80973231 0.44300812
0.55537492 0.80866356 0.94740200
0.45339834 0.18640161 0.44506642
0.43381482 0.17279261 0.94397541
0.43464982 0.69312470 0.43636431
0.44052584 0.69274595 0.94151120
0.94664070 0.19309201 0.45121888
0.94425275 0.17656797 0.95002428
0.96150284 0.70228270 0.45759339
0.94986103 0.70849912 0.94210110
0.07194590 0.19729487 0.05848068
0.07125773 0.19161725 0.55939675
0.08233744 0.70698931 0.04480459
0.06209769 0.70458461 0.57879575
0.54292549 0.20269733 0.07003696
0.54576240 0.17955456 0.57680694
0.55433030 0.68563173 0.05899679
0.54767663 0.68543768 0.55478656
0.31816953 0.32495502 0.20827334
0.27553209 0.29999140 0.67915716
0.30231142 0.79814461 0.20213975
0.30055142 0.80984536 0.69520601
0.80781152 0.30148056 0.17776564
0.81630970 0.31772732 0.70982233
0.81948643 0.80518780 0.17694531
0.82286408 0.82529479 0.70384820
0.33389233 0.18993149 0.29993300
0.29148286 0.19732445 0.80752711
0.30669815 0.67694992 0.32114640
0.29317260 0.70028856 0.81030680
0.79893022 0.18666104 0.29631617
0.82283092 0.18720401 0.80939378
0.83985584 0.69215736 0.29026699
0.80880809 0.69251778 0.80727979
0.20785473 0.20354183 0.18611701
0.16703291 0.17853031 0.69425521
0.18743191 0.67815645 0.20612582
0.17796834 0.70416627 0.68794984
0.68987593 0.18591952 0.18361246
0.72131146 0.18736723 0.67626172
0.70523976 0.68778775 0.18786837
0.71736710 0.70668012 0.67769134
0.21193522 0.29678511 0.32498251
0.16733464 0.29816811 0.80197396
0.18398739 0.81163796 0.30086569
0.17021960 0.81347071 0.81201270
0.69677835 0.31369229 0.29709569
0.69340843 0.29126556 0.81026376
0.70680718 0.80427349 0.30230458
0.68873690 0.81980041 0.80430660
0.00323670 0.00800614 0.99631742
0.00870656 0.00645651 0.48631965
0.01053249 0.49897097 0.01755854
0.99625598 0.49779389 0.50265561
0.49777637 0.00286920 0.00578386
0.49321560 0.01137587 0.50544017
0.49662454 0.49167727 0.99734490
0.50668067 0.50151843 0.49909747
0.01633582 0.25343678 0.24570350
0.98422165 0.25304457 0.75047532
0.01169156 0.75262750 0.25637457
0.00098225 0.74269049 0.75265375
0.49748229 0.25565324 0.24665369
0.47955203 0.26616348 0.74700319
0.50175547 0.75211152 0.25556734
0.48675469 0.75123329 0.75117082
0.24599946 0.00421813 0.24973893
0.25381968 0.99491117 0.74955911
0.25351964 0.50040933 0.25661518
0.24876248 0.50295790 0.73868428
0.74976097 0.99480243 0.25142574
0.74032546 0.00084367 0.74557237
0.74023719 0.50031267 0.26168696
0.75199969 0.49472261 0.73809588
0.26211271 0.24760016 0.00312500
0.25602302 0.24117360 0.50220232
0.25042250 0.75663167 0.01237573
0.24840962 0.75306969 0.50541073
0.75300107 0.24955096 0.99547783
0.74714104 0.25048752 0.50785679
0.74590864 0.77230241 0.98933052
0.75865073 0.75595196 0.48555711
0.98875696 0.01404601 0.24522373
0.99471913 0.00771254 0.75157435
0.98221926 0.50114068 0.26670925
0.99909793 0.49637961 0.75471769
0.50526717 0.99482261 0.25341938
0.51721745 0.00118664 0.75331785
0.50985816 0.50749268 0.24922793
0.51265111 0.49132984 0.74952517
0.25848496 0.98900779 0.02989743
0.26627072 0.99868685 0.48530920
0.25492320 0.50543431 0.00162975
0.25485945 0.49414587 0.48315954
0.73866355 0.00008012 0.01588637
0.74723623 0.98857799 0.49746905
0.74853048 0.49914936 0.99160365
0.73494766 0.51467303 0.50611184
0.00691287 0.24665167 0.99359362
0.01453227 0.25409611 0.49901938
0.00729121 0.76659322 0.00063000
0.01583785 0.76472322 0.51463427
0.48181361 0.24114625 0.00120860
0.49563212 0.24524125 0.51612861
0.49667387 0.74928775 0.00132213
0.49249489 0.74817792 0.49529765
0.26753063 0.24897835 0.25981479
0.22472347 0.24417843 0.74429503
0.24459905 0.74496199 0.25579352
0.23323997 0.75453999 0.75101355
0.75098580 0.24960596 0.24092957
0.76316385 0.24207194 0.74886024
0.76749832 0.74842464 0.24548793
0.75622415 0.76757278 0.75429286
Direct configuration=      2
0.10394230 0.02371013 0.02538433
0.00288458 0.05933766 0.39961408
0.02361807 0.61895482 0.99913626
0.00785154 0.44181144 0.60530223
0.58546670 0.90461209 0.01262816
0.58175790 0.90575639 0.49544478
0.48324689 0.50354608 0.11156397
0.57553878 0.57256879 0.48352641
0.25169831 0.57954429 0.17996773
0.25328215 0.38760740 0.74916849
0.23393559 0.89411439 0.24247635
0.22372507 0.01562038 0.87758425
0.82377404 0.50756753 0.34634122
0.83227266 0.50847311 0.66933924
0.83878936 0.99606527 0.33456526
0.71308883 0.01616223 0.85556617
0.11002038 0.30353169 0.23527417
0.02307656 0.27408632 0.64676994
0.08019403 0.75646818 0.16227013
0.94374668 0.74405315 0.68311482
0.57588839 0.14804646 0.25112370
0.49170402 0.31700673 0.66848202
0.50537995 0.82998058 0.17083399
0.44513450 0.74691061 0.85521310
0.35243079 0.51493021 0.25646071
0.25904633 0.61181335 0.71791457
0.26991758 0.12334006 0.22011072
0.23755599 0.96222364 0.64823422
0.78962911 0.39246154 0.24766479
0.83870749 0.48878937 0.82690083
0.66744557 0.99702845 0.17207939
0.75401233 0.99806411 0.63961863
0.90410750 0.18991139 0.22507320
0.93734910 0.21931280 0.84699960
0.96974625 0.77374752 0.36238834
0.03622559 0.73481779 0.88053380
0.42955686 0.33447911 0.25238178
0.47436849 0.15048341 0.68890873
0.50332133 0.64421825 0.33426467
0.52415706 0.77026873 0.64352803
0.98136432 0.40692385 0.45007646
0.98088652 0.52556981 0.12047486
0.00145132 0.10964457 0.52825525
0.00822761 0.92770129 0.09052952
0.58795982 0.41559415 0.49931128
0.41947357 0.41025638 0.97367038
0.43756548 0.89606363 0.48667201
0.44392642 0.89889650 0.99948290
0.02359665 0.23257827 0.14232521
0.05765814 0.15296788 0.76572536
0.93571248 0.66691043 0.25633716
0.07989039 0.66468448 0.75807020
0.51228431 0.28312069 0.13549892
0.61301679 0.23928323 0.76044218
0.49125251 0.70505111 0.14733403
0.53626666 0.63516580 0.76483522
0.31532659 0.25111433 0.58886335
0.21474770 0.14919259 0.99946120
0.18024894 0.78587566 0.58485123
0.36623067 0.73392614 0.01810466
0.71854892 0.23107981 0.39089473
0.74479310 0.16814093 0.08179187
0.75466336 0.66120573 0.57076750
0.74214496 0.65458320 0.93784449
0.00193216 0.22382440 0.35173087
0.92671578 0.33089221 0.76822151
0.92803732 0.80694810 0.19747972
0.95352147 0.85036712 0.76829228
0.51035441 0.26159834 0.36393357
0.47751000 0.31326617 0.82873824
0.49878883 0.82717416 0.33977649
0.49012865 0.86243764 0.78912445
0.40095209 0.02979751 0.49088473
0.52536366 0.01596331 0.89816087
0.50840794 0.47641071 0.38778690
0.56560495 0.41148595 0.98646493
0.12247164 0.94040780 0.50076858
0.99391254 0.93148818 0.91889286
0.09779085 0.51219909 0.45465239
0.10811970 0.50028933 0.03918292
0.42008380 0.08548418 0.97931284
0.50445457 0.98158842 0.60415116
0.52128938 0.49326509 0.88913711
0.43976128 0.40816430 0.51928322
0.88301590 0.00357930 0.00053764
0.99306772 0.91501183 0.41757214
0.98263651 0.39638791 0.96271656
0.98733286 0.59667124 0.43710941
0.59784406 0.07591165 0.00274646
0.58529010 0.09437930 0.50890929
0.59972094 0.56801642 0.99496762
0.38709836 0.55270065 0.49859209
0.01072149 0.07195000 0.90712827
0.88972328 0.98623418 0.49071837
0.03849885 0.51705905 0.89211740
0.01419000 0.60067369 0.58354202
0.33950166 0.99741520 0.32700574
0.36162013 0.02619671 0.74412907
0.23457327 0.58555071 0.31988035
0.13982338 0.49035537 0.74562080
0.73085236 0.10884356 0.24999302
0.83288823 0.94163682 0.76425613
0.64485419 0.49292104 0.19704876
0.66911552 0.50576856 0.66793676
0.16411578 0.02529028 0.19728613
0.13052108 0.98374598 0.74989638
0.25571807 0.42723899 0.15919663
0.36443423 0.49081756 0.74122280
0.77907395 0.88450291 0.25161085
0.66889476 0.10750158 0.73654095
0.67169333 0.49471499 0.33078519
0.74502020 0.62090821 0.75977967
0.35432335 0.26811032 0.95860990
0.31985478 0.18899881 0.44219151
0.25173981 0.82925302 0.91716122
0.32030743 0.74990351 0.59513196
0.86516139 0.25902748 0.02815592
0.76013735 0.27640058 0.60773063
0.86774582 0.77727500 0.98812155
0.71221432 0.72181764 0.39149977
0.13814385 0.28037222 0.02198702
0.15792732 0.28053628 0.43440008
0.22695955 0.67592917 0.08286491
0.15097149 0.74778931 0.41149672
0.63475272 0.24707918 0.00008661
0.65583183 0.26881606 0.52527591
0.64163235 0.76986058 0.01903187
0.74086416 0.81626987 0.59921888
0.61975103 0.30532937 0.22403881
0.38960743 0.24276687 0.75317725
0.39096545 0.74799347 0.27235311
0.62485374 0.75345967 0.76489136
0.95721162 0.35300727 0.23971359
0.91189582 0.16452930 0.73101926
0.07971166 0.65718916 0.26845605
0.91760583 0.67793409 0.81948855
0.97918410 0.09272706 0.07102626
0.02170649 0.96113560 0.60267315
0.89474749 0.49969146 0.98181307
0.88367645 0.50665632 0.50060137
0.50447129 0.04739255 0.11118668
0.51904881 0.04997628 0.37787013
0.41927278 0.56824048 0.01154705
0.49163514 0.50466831 0.61691058
0.18497786 0.00605085 0.35084935
0.25043845 0.11760617 0.71997988
0.12677975 0.47744109 0.28686678
0.21883748 0.48683530 0.62774810
0.65596860 0.96236891 0.31825013
0.81978791 0.08296465 0.73317245
0.78301307 0.60676205 0.24640692
0.67772071 0.49806822 0.83869470
0.08928869 0.15887362 0.24767561
0.06757008 0.32015799 0.79796485
0.07925695 0.85384722 0.27806670
0.09927885 0.82064266 0.74531701
0.42278251 0.17817622 0.23441993
0.51659859 0.16530887 0.83431684
0.61993233 0.73008184 0.27257243
0.39357242 0.75401208 0.72346465
0.24606486 0.37186198 0.98189638
0.26555960 0.35838221 0.48085709
0.14836313 0.80651370 0.02754531
0.32681039 0.74261809 0.42567522
0.74800270 0.35255313 0.92751260
0.76692250 0.36719783 0.47079273
0.74852117 0.84429988 0.08384062
0.77527859 0.84648365 0.43786913
0.27171333 0.41441510 0.33089227
0.23276963 0.50857338 0.86736503
0.34981048 0.00895672 0.18331849
0.29619749 0.89785691 0.77640186
0.82065175 0.49581718 0.14339726
0.69499163 0.39534315 0.73525697
0.83056042 0.00891685 0.16359407
0.65908719 0.93301320 0.75188057
0.28473685 0.27186026 0.10130884
0.18258662 0.25478566 0.59288684
0.27012526 0.85342093 0.07913382
0.28478492 0.86089228 0.47367960
0.74232282 0.33381258 0.07820882
0.78697034 0.14205805 0.50724736
0.76083891 0.65382508 0.08992125
0.86686667 0.77768783 0.50333321
0.19012009 0.14037886 0.50217410
0.20465716 0.23216180 0.87171412
0.21567001 0.65515707 0.52206279
0.25169938 0.67589115 0.92801727
0.86513338 0.26508022 0.47038606
0.75230918 0.18949452 0.90967191
0.63897883 0.76067937 0.50315444
0.74238719 0.81877703 0.91764352
0.12180536 0.14324159 0.38182860
0.13542099 0.10449753 0.89335648
0.12442771 0.62843478 0.39558273
0.13017439 0.61470005 0.86877813
0.63860713 0.13369030 0.37149051
0.63023324 0.12034779 0.88233977
0.61904162 0.62041657 0.37131469
0.62664608 0.61668833 0.86576996
0.38562960 0.38048503 0.37982352
0.34524274 0.37618799 0.85543500
0.37320127 0.86732336 0.36649079
0.37682954 0.86369561 0.87910345
0.86865068 0.37577441 0.38881504
0.87816600 0.36231287 0.90115845
0.87652200 0.87162753 0.36307354
0.86398247 0.89109058 0.89278604
0.37626945 0.13307780 0.11751452
0.36539783 0.11630946 0.62833045
0.37551565 0.63968895 0.11839421
0.35442697 0.62854899 0.61302694
0.86600689 0.12989593 0.11507039
0.88102569 0.10528287 0.61715938
0.89327409 0.61565943 0.10290293
0.88781028 0.61850939 0.61750101
0.14051387 0.35516837 0.11809452
0.12509594 0.37748915 0.61957911
0.12016379 0.88160287 0.14017731
0.11828478 0.88460869 0.63309184
0.61481196 0.38487081 0.11390796
0.63015653 0.36651801 0.63181078
0.62001303 0.85784583 0.13683233
0.61727315 0.86088849 0.62164843
0.02758165 0.43971259 0.32819273
0.05916865 0.43980801 0.81041639
0.05926579 0.96653335 0.30134097
0.03655110 0.93911926 0.80247220
0.57334032 0.44602626 0.29508068
0.56684630 0.43440756 0.81666588
0.54869583 0.93827334 0.32876142
0.56302057 0.95166671 0.81231951
0.44003881 0.06056581 0.28974298
0.45552449 0.06736423 0.80634570
0.44033827 0.55082977 0.32111237
0.44597089 0.55592509 0.80988943
0.93189689 0.07880285 0.29525420
0.94410572 0.07369428 0.80554959
0.92126324 0.57137370 0.33840140
0.93981290 0.55085052 0.82432195
0.43038688 0.44345781 0.19627866
0.45154615 0.43693327 0.68863143
0.45031933 0.92826976 0.18735054
0.44752564 0.94488798 0.70447857
0.91045719 0.44952397 0.20634517
0.93321342 0.44134613 0.70409614
0.92681681 0.95337965 0.18525747
0.91864786 0.95704131 0.69373738
0.05207810 0.07254280 0.17874338
0.05677519 0.05534670 0.68779698
0.04218093 0.55874360 0.22127019
0.05580834 0.55157318 0.69874806
0.56831793 0.04452255 0.19892015
0.56547750 0.05401525 0.68429127
0.54319981 0.56813497 0.18393557
0.56118636 0.54787978 0.68797986
0.29157570 0.06755704 0.42758183
0.30586657 0.05426282 0.95156099
0.30064398 0.58241190 0.42646889
0.31379765 0.56750966 0.93764856
0.80178055 0.04776011 0.43753703
0.79068107 0.06788880 0.93777060
0.79781848 0.57534467 0.44356329
0.79434103 0.55244489 0.92259001
0.32772473 0.45523507 0.05141676
0.31806800 0.45577014 0.54139641
0.34093134 0.95506432 0.06561097
0.33014351 0.94262448 0.54797220
0.80611826 0.45025752 0.04128180
0.79583910 0.45695112 0.55300804
0.80027442 0.94608423 0.05763425
0.80740638 0.92925622 0.54453353
0.20401667 0.44053011 0.42075028
0.18842011 0.46358629 0.95464719
0.20468012 0.93708936 0.43670618
0.19875507 0.93240299 0.97333632
0.68024273 0.45224182 0.43640973
0.67591634 0.44383848 0.93837214
0.68816543 0.92868839 0.43308173
0.67877581 0.95074514 0.95034482
0.20501982 0.05256646 0.08682966
0.19321856 0.03884902 0.55838823
0.20950019 0.55815194 0.07949196
0.17813832 0.54681027 0.52661775
0.68718678 0.06731783 0.07335232
0.69519659 0.05350408 0.56188422
0.69568017 0.56245521 0.06272389
0.67831473 0.56152422 0.56278496
0.43255559 0.30505409 0.04190938
0.42271677 0.29933996 0.56427722
0.44906818 0.79558866 0.07816678
0.41949184 0.80132713 0.54816977
0.97320578 0.30753844 0.06372506
0.93410385 0.30260769 0.54974840
0.94274100 0.82818659 0.06251588
0.94813069 0.82137791 0.56610753
0.05018582 0.30406202 0.42662619
0.06562337 0.30009124 0.92868767
0.06057411 0.83266497 0.45997906
0.06251948 0.82972632 0.94979548
0.55947780 0.30450876 0.46303502
0.55231451 0.30366161 0.93070345
0.54506233 0.80417210 0.44046505
0.55140124 0.81542349 0.94132566
0.44870359 0.18208336 0.44875319
0.42237869 0.19410836 0.92190196
0.44092075 0.67516099 0.44488819
0.44339738 0.68908932 0.95495883
0.94503828 0.17573279 0.44955210
0.94693083 0.18397281 0.95388529
0.94970771 0.71074298 0.44976073
0.96279585 0.69929441 0.96018646
0.07834166 0.18358281 0.05374340
0.06097463 0.19584551 0.56008367
0.07058590 0.71729489 0.06580670
0.06942320 0.71250918 0.57591639
0.53848260 0.18443225 0.05075233
0.54568343 0.18551278 0.58105983
0.56633860 0.68494330 0.05939955
0.55274735 0.69146005 0.55872113
0.30864733 0.32842896 0.20214132
0.28488505 0.30960547 0.67944145
0.29727592 0.79748438 0.18494751
0.29338964 0.81404796 0.69869887
0.81052397 0.29619940 0.18654329
0.81714562 0.32391776 0.70056717
0.81136557 0.80338155 0.16629906
0.84829089 0.82547522 0.71071002
0.31280115 0.20062693 0.30932628
0.29484375 0.19155096 0.79512132
0.29949017 0.69169498 0.31365349
0.30231116 0.68468777 0.80063384
0.80176197 0.19456711 0.30321129
0.82541648 0.18778832 0.80772004
0.82929441 0.69260142 0.29928621
0.80564576 0.70060228 0.82215856
0.19209459 0.20773689 0.19745364
0.15692776 0.19297199 0.69308346
0.18227146 0.67596899 0.19615703
0.18244938 0.69620505 0.68605458
0.67921652 0.20768606 0.17776071
0.70431037 0.20744844 0.68908839
0.70297594 0.68173136 0.19814322
0.70890764 0.71957829 0.68824988
0.19400214 0.31745094 0.32617838
0.18240997 0.31651127 0.80337341
0.18088973 0.80523643 0.30362546
0.18449801 0.80263311 0.82329178
0.69540750 0.32112843 0.30471705
0.69612243 0.30260760 0.81602621
0.71377580 0.80926251 0.31420544
0.70875134 0.81677728 0.80762044
0.99213345 0.00397434 0.01138596
0.00399333 0.99715885 0.50317282
0.00948203 0.50749865 0.00455275
0.99880541 0.50198909 0.50907178
0.49872521 0.00266031 0.00843354
0.51691310 0.99413315 0.48197273
0.50439287 0.50220979 0.99814566
0.50121636 0.49232014 0.50063170
0.99764128 0.25000655 0.24163514
0.99980772 0.25014683 0.75476231
0.01542651 0.74410908 0.25029357
0.00537112 0.74810146 0.77228027
0.51496644 0.26001472 0.25158092
0.50133210 0.24264690 0.75001585
0.50178375 0.74549508 0.25137328
0.50529782 0.75056847 0.75707995
0.25439827 0.01003580 0.25064774
0.24737783 0.99669060 0.76014630
0.23903386 0.48965147 0.24956193
0.25271074 0.50392966 0.74134288
0.75473670 0.00002982 0.25128956
0.74717769 0.00809959 0.75326319
0.75385611 0.49588739 0.24661297
0.75014984 0.51627192 0.74712463
0.24240515 0.25870360 0.97810467
0.24482504 0.23703757 0.50652490
0.25235059 0.75499037 0.00272206
0.24444431 0.76120349 0.49783265
0.74589287 0.25446954 0.00662921
0.75621165 0.25554437 0.49118840
0.75340115 0.74311143 0.00873678
0.75261590 0.75057393 0.50077461
0.99028266 0.01340179 0.23957230
0.99203919 0.00448676 0.74296918
0.97320927 0.50649297 0.27351286
0.99052449 0.49924556 0.75232539
0.50030440 0.98720471 0.24947906
0.50953652 0.00570740 0.75159643
0.49436594 0.50090501 0.25003916
0.50639037 0.49364657 0.75250367
0.26518909 0.99986972 0.01866527
0.25755510 0.00017541 0.49975498
0.26462406 0.51560663 0.00452820
0.25376555 0.50776845 0.47570526
0.73860840 0.00977886 0.00357854
0.74469561 0.99148082 0.49729649
0.73817621 0.50096682 0.99151185
0.73908784 0.51292967 0.49827052
0.01828390 0.24397638 0.99530746
0.99653489 0.24921479 0.49472604
0.00788479 0.77343879 0.01579049
0.00956370 0.76138999 0.51697353
0.48994468 0.24134248 0.98280607
0.49615166 0.24086188 0.51508387
0.50663086 0.74858564 0.00863394
0.48972901 0.73979688 0.49748846
0.25225012 0.26636899 0.25642143
0.22721952 0.24548637 0.74153966
0.24097661 0.73901510 0.25424548
0.23763838 0.75016650 0.75894877
0.73584757 0.25180663 0.24672386
0.76177970 0.25520885 0.75778753
0.76930200 0.74909074 0.24228946
0.77663508 0.76332409 0.74987367
Direct configuration=      3
0.11718076 0.96052284 0.01863200
0.00288480 0.06852236 0.40135442
0.03351801 0.60263903 0.00437084
0.02058663 0.46034177 0.60636300
0.58734663 0.92684622 0.01721549
0.59805134 0.94435650 0.49830073
0.49866259 0.50316225 0.10447161
0.56928410 0.56750926 0.48995564
0.27201347 0.62101884 0.19206187
0.27311473 0.38996668 0.75118930
0.26359923 0.89128463 0.27620132
0.24862215 0.02728391 0.85727841
0.82239841 0.50832710 0.34455522
0.81882022 0.50630944 0.66485629
0.83426638 0.01653006 0.31136503
0.74832794 0.99713788 0.86562623
0.08345505 0.31744214 0.24511063
0.02644945 0.28621767 0.64699837
0.06961485 0.76170419 0.16619084
0.00666905 0.73246731 0.64961875
0.55119341 0.14691182 0.25579278
0.51804088 0.31312450 0.65457342
0.50202288 0.84499263 0.18125472
0.45543468 0.75828042 0.85951763
0.36269747 0.49826860 0.24889020
0.25395366 0.60776782 0.70861857
0.24488208 0.11935960 0.26299281
0.23970368 0.94951820 0.63974332
0.78947028 0.39965237 0.27132015
0.84556368 0.48178378 0.82040647
0.67956081 0.98449003 0.14755470
0.77617048 0.02710182 0.62890776
0.89899591 0.21410276 0.21808683
0.98664810 0.24930508 0.86845975
0.96670419 0.78284823 0.36491614
0.04215308 0.72848939 0.87432571
0.41404642 0.33320072 0.24431949
0.50238559 0.16314027 0.67794872
0.46929920 0.65103613 0.31956135
0.51184360 0.77404094 0.64438558
0.97995170 0.41818400 0.43215238
0.98565654 0.51594452 0.12939899
0.00683771 0.09811009 0.56203062
0.99137788 0.92533984 0.08648792
0.57939370 0.42216162 0.50858973
0.39926180 0.43217399 0.98167203
0.46008210 0.89425666 0.47612547
0.42880742 0.90918837 0.00983596
0.01727608 0.22395525 0.13349296
0.07443353 0.16635002 0.75860619
0.93213104 0.66897432 0.22996517
0.07297102 0.64777429 0.75914599
0.47469631 0.23659494 0.12990891
0.61247726 0.25808242 0.80512595
0.51191007 0.67988265 0.17277987
0.50987424 0.63504071 0.76038450
0.32378783 0.23032439 0.57170643
0.21678043 0.14707765 0.98066127
0.16628679 0.74545660 0.58340624
0.35462095 0.73466012 0.02428184
0.71910281 0.22843148 0.38250963
0.72093779 0.16983067 0.09722938
0.76167245 0.64802486 0.55965384
0.74410079 0.66686623 0.94475232
0.98993657 0.22249074 0.36378538
0.90594875 0.31663520 0.76677840
0.92949166 0.81313693 0.19333269
0.93965721 0.85057009 0.76683959
0.50611603 0.24034448 0.35040529
0.48860928 0.34897098 0.80563061