Li192 P32 S160 I32
1.0
20.433000 0.000000 0.000000
0.000000 20.433000 0.000000
0.000000 0.000000 20.433000
Li I S P
192 32 160 32
Direct configuration=      1
0.11315743 0.01422884 0.98637146
0.00539059 0.07844302 0.41626101
0.99025591 0.61559897 0.02878572
0.99408773 0.42049437 0.58742242
0.57732571 0.91625970 0.00887390
0.58145932 0.91451698 0.49183638
0.52043659 0.48209563 0.11210154
0.58235214 0.58281708 0.49509332
0.24632730 0.58416859 0.17481955
0.27373961 0.39102919 0.78069616
0.26485942 0.88785092 0.27315240
0.22772464 0.02214231 0.86132792
0.83137201 0.50642898 0.34141625
0.83117388 0.50051413 0.66984181
0.83908180 0.00292746 0.33024924
0.72666027 0.00745404 0.86360459
0.08335749 0.33749714 0.26143783
0.00425921 0.25804238 0.64300136
0.07291041 0.74639773 0.15591920
0.93078380 0.74843152 0.66692843
0.58401337 0.16725352 0.24504172
0.50208663 0.33276006 0.66620708
0.49647136 0.83555439 0.16733467
0.47571680 0.76491911 0.86568321
0.36590008 0.52053779 0.23370081
0.25337656 0.60344024 0.69780517
0.26489625 0.11395311 0.23130517
0.25297133 0.97970125 0.63631912
0.76563641 0.39006430 0.27471533
0.83293661 0.49659826 0.83651109
0.66596427 0.99335553 0.17124871
0.76702481 0.01498549 0.63711879
0.91906312 0.16882151 0.24827085
0.98012221 0.26932823 0.86674522
0.97922838 0.76539543 0.36083420
0.08048462 0.74978771 0.84876885
0.41942233 0.33470739 0.25349386
0.50070866 0.16521129 0.67310585
0.50536098 0.67146575 0.33331031
0.52068192 0.76859936 0.63763181
0.99307052 0.41404640 0.42631796
0.00748549 0.47503537 0.11849293
0.99727008 0.08808350 0.58051156
0.00289458 0.92378221 0.08288784
0.58267215 0.42126767 0.50987411
0.41961532 0.41881523 0.99917970
0.42436610 0.91564976 0.49418322
0.42068519 0.91386310 0.99531630
0.02164483 0.27095949 0.14276945
0.08057927 0.16578479 0.75657945
0.92376051 0.66087432 0.24437020
0.07284115 0.65558974 0.74249648
0.51648914 0.27121653 0.13811578
0.61504118 0.26648862 0.74018604
0.50601853 0.66148545 0.17184849
0.51987941 0.63777378 0.76512006
0.33015910 0.24673850 0.58586013
0.23850886 0.13904530 0.99282488
0.16813746 0.76132013 0.57666990
0.35606082 0.72948177 0.02981954
0.72550800 0.22387477 0.39207121
0.74445281 0.16351405 0.08378358
0.75087925 0.66969283 0.58122009
0.74708343 0.66924684 0.91816857
0.01804390 0.23383195 0.36231950
0.91998330 0.33947614 0.75580048
0.93643069 0.81657025 0.19603472
0.97264701 0.86030787 0.77558508
0.52037659 0.23578011 0.36572853
0.49433312 0.33715896 0.83072147
0.49501441 0.83562049 0.32827431
0.48570546 0.86582159 0.76129617
0.41684132 0.08231931 0.50987615
0.52399748 0.01329948 0.89214777
0.47937368 0.48008428 0.39148487
0.58100619 0.41314360 0.99463162
0.11551407 0.98489939 0.51373714
0.00146998 0.92566528 0.91683994
0.11241653 0.48707037 0.50889402
0.11295694 0.48431440 0.01981913
0.41686838 0.08552767 0.99342964
0.52774407 0.98242476 0.61047490
0.51650941 0.51262802 0.89079164
0.42634118 0.41100236 0.50868489
0.88648921 0.98500120 0.98509426
0.00708947 0.91769678 0.41823640
0.98125918 0.39146341 0.97707435
0.00146024 0.58414124 0.42179117
0.58294974 0.08278782 0.00843654
0.58151218 0.08955669 0.50657995
0.58126056 0.58955286 0.00417522
0.41890434 0.58889408 0.49675764
0.99912121 0.08594840 0.91552138
0.88893687 0.97844006 0.48802091
0.01765303 0.52709530 0.89224321
0.00422907 0.59151440 0.58153344
0.33714126 0.00708408 0.33199388
0.36541762 0.99776429 0.77434967
0.25242389 0.57731257 0.33749350
0.13590540 0.48988205 0.74123937
0.75197376 0.11115711 0.24753622
0.82713133 0.91748539 0.75640043
0.67337382 0.49834970 0.16703682
0.66992263 0.50177075 0.66528672
0.16734532 0.99782964 0.17050312
0.13704088 0.98570871 0.73122630
0.25303045 0.42139548 0.16340687
0.36319703 0.51259052 0.73203041
0.77109934 0.88870588 0.26124145
0.66875983 0.08758884 0.74804934
0.66577165 0.50088338 0.33931540
0.76133520 0.61373203 0.74617125
0.33107801 0.24868119 0.91180544
0.33883926 0.24302502 0.41779977
0.25881735 0.83555927 0.91519162
0.33132261 0.74706912 0.57721000
0.86317248 0.23302773 0.02291646
0.78071185 0.23817799 0.61473278
0.86262961 0.77238666 0.98608122
0.75876114 0.67491811 0.41394604
0.16982997 0.25913393 0.08105424
0.17193031 0.26083680 0.41482821
0.20727106 0.67794800 0.06924523
0.16068892 0.74869879 0.41680141
0.63769232 0.24215260 0.98413889
0.64362545 0.26632213 0.53252366
0.64030544 0.76474826 0.02053102
0.74603838 0.82891184 0.58998074
0.58532641 0.33739599 0.25590285
0.38671160 0.23926685 0.73848289
0.38737385 0.73151503 0.23135072
0.61550737 0.74466292 0.77421017
0.91484639 0.32862676 0.25555196
0.92138034 0.17473253 0.75226706
0.08095249 0.65634420 0.26438193
0.93332256 0.69304659 0.82043460
0.00003154 0.08806139 0.08410451
0.99694351 0.92090552 0.59125172
0.88615629 0.51467091 0.01566325
0.88633591 0.52396606 0.51774451
0.48292680 0.02372744 0.11177824
0.51522951 0.02500295 0.39077612
0.41795522 0.58038901 0.00653645
0.48184182 0.52135217 0.61292684
0.16888408 0.00818220 0.32999918
0.26547305 0.11058188 0.72238658
0.13905110 0.49386344 0.25795630
0.23694713 0.45395319 0.63974194
0.66703046 0.99919500 0.33027456
0.82820292 0.07744100 0.75886753
0.73414994 0.61182588 0.26749227
0.66920927 0.50162240 0.83656407
0.08785626 0.16829908 0.24406437
0.08360357 0.33690344 0.75501734
0.08026247 0.83758484 0.26219848
0.10452549 0.79599083 0.71473262
0.42059938 0.17197466 0.24720473
0.50653339 0.17665055 0.83702346
0.61444215 0.76444628 0.23382251
0.38994536 0.72220901 0.73314088
0.26833506 0.36648834 0.98203802
0.27085737 0.35973460 0.48602941
0.14305588 0.79527188 0.01100596
0.32819604 0.74338066 0.40818885
0.75701082 0.33608750 0.92490904
0.76276251 0.36430956 0.48385007
0.75577742 0.83222369 0.08719855
0.74994774 0.83589549 0.41766193
0.26098198 0.41829369 0.33311346
0.23935625 0.53229752 0.85620519
0.33414318 0.99499448 0.16647982
0.27022070 0.88651462 0.76631682
0.83089004 0.50238193 0.17221070
0.73600161 0.38644695 0.74052211
0.83597004 0.00157123 0.16619158
0.66466044 0.91884472 0.74041711
0.33087060 0.25081890 0.08481377
0.17162778 0.25457144 0.58531179
0.25713296 0.83629818 0.08565066
0.26437394 0.85994604 0.47423879
0.74707439 0.33391142 0.08607970
0.77183965 0.13455330 0.51451289
0.75697872 0.66445913 0.08005878
0.86277881 0.76764379 0.49344038
0.23233232 0.14040067 0.47762951
0.16749999 0.25143173 0.91572942
0.22975394 0.63809730 0.49035863
0.24585984 0.67530722 0.91492397
0.86465865 0.26442006 0.47206552
0.75642962 0.16863345 0.92061350
0.63696646 0.74059669 0.48037654
0.74456466 0.83740314 0.91972255
0.12745816 0.13293811 0.37471131
0.12968911 0.12016189 0.88309330
0.12974263 0.61849214 0.38405232
0.12353118 0.62146433 0.86920391
0.62278111 0.12663569 0.37476487
0.62822819 0.12315524 0.88112338
0.63187574 0.63184927 0.37364505
0.61980255 0.62674345 0.87290942
0.38048645 0.37351458 0.38190292
0.37009966 0.37646957 0.87719020
0.36842244 0.87388506 0.37053384
0.37941148 0.87622896 0.86394210
0.86653858 0.37480622 0.38066434
0.88113171 0.37419955 0.88255101
0.87865030 0.87472447 0.37731178
0.87535850 0.88010496 0.88277387
0.37485561 0.12234005 0.12574517
0.37376596 0.12834755 0.63509114
0.37333335 0.62770627 0.13139113
0.37712770 0.62239215 0.62987218
0.87292798 0.12833854 0.12594476
0.86788939 0.12362751 0.62815614
0.88107276 0.61918816 0.11962696
0.87356500 0.62489527 0.62650165
0.12044864 0.38183179 0.13091672
0.12068488 0.37846972 0.62691785
0.12582344 0.87228440 0.12845551
0.13152698 0.88959089 0.62251447
0.61890605 0.37471622 0.12428665
0.63213657 0.36950691 0.63274653
0.62667318 0.86773433 0.12874077
0.61608395 0.87148546 0.62082092
0.05133515 0.44110599 0.32072897
0.04931021 0.44399219 0.80755248
0.06182713 0.94684770 0.31027319
0.05207631 0.94844496 0.80793930
0.56357621 0.44267660 0.31446855
0.56457254 0.43735274 0.81112981
0.55546730 0.94433695 0.31197726
0.56489356 0.94580273 0.80510480
0.44239206 0.06362529 0.30571382
0.45474654 0.06684773 0.81219178
0.45088603 0.56142388 0.30860751
0.44762078 0.55356320 0.80576932
0.94479614 0.06172579 0.30770856
0.93678285 0.06640536 0.81074536
0.93758400 0.56161067 0.31927919
0.93566472 0.55934768 0.80754130
0.44860602 0.44274965 0.19733020
0.44770728 0.43794497 0.69281475
0.44345105 0.94421737 0.19155439
0.44553849 0.95507297 0.69391533
0.93315942 0.44061108 0.20506604
0.93276100 0.44044152 0.69090240
0.94441389 0.94406184 0.19164049
0.93328624 0.94651667 0.69658776
0.06150093 0.05940097 0.19064312
0.05176835 0.06217444 0.69170119
0.05138383 0.55285725 0.20205388
0.05170615 0.55349471 0.68730018
0.56209097 0.05774154 0.19325019
0.56663398 0.06429547 0.68905533
0.56735856 0.55637588 0.19252864
0.56429138 0.55395286 0.69287732
0.31670218 0.06465144 0.43757708
0.30991018 0.05425449 0.94481405
0.31304682 0.56429531 0.44320519
0.31024707 0.57379827 0.94825016
0.80575612 0.04975372 0.43809270
0.79777973 0.05591674 0.94816269
0.80153598 0.56510687 0.44477790
0.80166503 0.55767095 0.94283659
0.31515447 0.44973762 0.05855134
0.31963037 0.44122807 0.55573879
0.31897044 0.93596748 0.06084558
0.31639902 0.93881496 0.54606827
0.80112364 0.44419047 0.06154966
0.80077817 0.45067598 0.56038026
0.80475398 0.94267606 0.06383786
0.79940110 0.93447915 0.55305138
0.20189674 0.44332825 0.43971075
0.19853479 0.45600846 0.94332280
0.19783642 0.94842263 0.43309466
0.19806946 0.93713405 0.94620373
0.68457496 0.44795212 0.44781135
0.68749590 0.43984268 0.94302257
0.68472445 0.93656248 0.43273158
0.68309842 0.94027857 0.95217741
0.19811923 0.05014710 0.06311386
0.20355810 0.05578727 0.55566276
0.19338994 0.55933603 0.06817289
0.19989311 0.54879123 0.56316805
0.68459595 0.05714034 0.06918387
0.69009585 0.05393229 0.55191481
0.68606882 0.56096239 0.05959376
0.68420716 0.56797791 0.56197399
0.43590497 0.30800113 0.05482991
0.43647493 0.30622901 0.56817437
0.43796256 0.80963251 0.06508794
0.43607267 0.80641352 0.55402578
0.94898705 0.30795469 0.05907994
0.94441888 0.30846230 0.55410622
0.94726058 0.81523292 0.06029938
0.94844510 0.81058314 0.56298138
0.06297629 0.30944746 0.44199419
0.06336565 0.30727006 0.94471046
0.06049490 0.81040547 0.44232515
0.05737345 0.82184339 0.93855377
0.55716919 0.30890479 0.45595421
0.55061862 0.30819324 0.93594918
0.54967728 0.80949866 0.43469066
0.55402470 0.80774894 0.94905509
0.44492306 0.19013288 0.44911517
0.43546785 0.19105063 0.93502691
0.43510746 0.69134391 0.43231464
0.43928285 0.69170506 0.95249666
0.95047457 0.18767732 0.44658425
0.94778253 0.18975831 0.94910142
0.94598359 0.69335509 0.45068276
0.94598692 0.69702606 0.94746675
0.06714294 0.19244722 0.06461125
0.06475007 0.19485214 0.56332563
0.07074841 0.70236348 0.04838825
0.06829327 0.69495734 0.56028091
0.55150227 0.19431225 0.05258729
0.55672804 0.19238818 0.56915223
0.55812865 0.69351236 0.06681885
0.55103215 0.69190492 0.54839399
0.31237361 0.31701380 0.19051661
0.29875374 0.30988564 0.69273715
0.29861485 0.80268432 0.19368501
0.30607230 0.80008438 0.69147790
0.80674842 0.31313333 0.19226425
0.81667460 0.30518992 0.70420207
0.81748815 0.80880538 0.18918148
0.82180903 0.81255971 0.69294983
0.31063404 0.19795539 0.30448607
0.29925884 0.19164299 0.80662022
0.30087481 0.68518961 0.30338289
0.29633164 0.67683761 0.79824094
0.80851390 0.19511887 0.30651507
0.81790983 0.18447369 0.81722488
0.81901494 0.68905943 0.30501641
0.81077281 0.69794830 0.81426954
0.19510072 0.20249023 0.18988005
0.18246763 0.19360072 0.69345981
0.17907533 0.68555010 0.19216698
0.17762926 0.69877238 0.68519859
0.69142426 0.19378158 0.18902286
0.70115244 0.19312158 0.69777305
0.70121704 0.69344539 0.18926462
0.69926748 0.70257599 0.69484765
0.19651073 0.31776654 0.30931715
0.18764368 0.31260014 0.81168332
0.18574599 0.80345269 0.31037545
0.19073998 0.80604614 0.80783185
0.69066516 0.30523292 0.30974799
0.70010288 0.30125414 0.81912604
0.70237021 0.80493183 0.30653978
0.70104859 0.82031321 0.80624326
0.99966034 0.00534516 0.00017172
0.00149894 0.99899169 0.50225257
0.00054045 0.50211785 0.00549323
0.99840041 0.50210861 0.50463229
0.49879970 0.00218210 0.00177387
0.50327177 0.00200847 0.50096759
0.50307025 0.50075023 0.00184956
0.49850365 0.50188639 0.50195739
0.00368127 0.25117952 0.25228131
0.00226267 0.25471177 0.75567894
0.00747373 0.74596000 0.25047296
0.00800629 0.75175278 0.75665368
0.50430887 0.25301871 0.25183848
0.50099067 0.25287474 0.75047829
0.50022013 0.75076850 0.24758636
0.50117227 0.75110833 0.75282271
0.25318328 0.00078847 0.24972311
0.25157799 0.99848157 0.75021618
0.25355660 0.49966404 0.25126929
0.24999876 0.49809888 0.74562787
0.75327333 0.99910467 0.25053973
0.74570873 0.00060421 0.75002134
0.74953879 0.50051413 0.25682237
0.74967157 0.49989948 0.75211645
0.25122620 0.25321957 0.99810684
0.25243521 0.24982053 0.49830578
0.24941766 0.75714175 0.99942703
0.24916550 0.74959807 0.49446170
0.75036335 0.24922308 0.00438215
0.75436079 0.24880090 0.50189282
0.75125788 0.75284918 0.00089252
0.74950191 0.75331920 0.49948321
0.00269165 0.00234732 0.24975259
0.99211629 0.00707866 0.75140291
0.99196246 0.49860856 0.26302773
0.99066618 0.50031640 0.74771442
0.50064149 0.00213470 0.25074934
0.50899189 0.00936709 0.74991287
0.50934594 0.50097647 0.25320740
0.50788820 0.49395714 0.75060720
0.25787433 0.99303018 0.00538662
0.26009499 0.00219298 0.49187491
0.25597417 0.51127822 0.00507162
0.26056736 0.49980233 0.49913576
0.74155243 0.99937898 0.00962226
0.74305096 0.99230463 0.49262071
0.74251276 0.50074476 0.00176615
0.74164240 0.50939463 0.50383832
0.00866373 0.24774506 0.00429729
0.00777295 0.24998823 0.50181224
0.00443900 0.76054130 0.99864791
0.00769391 0.75167045 0.50579365
0.49155372 0.25035303 0.99381940
0.49727622 0.24957242 0.51126910
0.49766656 0.75029187 0.00966581
0.49135646 0.74993231 0.49171345
0.25340343 0.25994418 0.24903128
0.24041808 0.25188862 0.75123426
0.23939513 0.74411712 0.24990508
0.24355858 0.74428375 0.74708034
0.74946012 0.25192761 0.24752905
0.76000064 0.24460914 0.76150338
0.76188440 0.74853777 0.24775316
0.76037382 0.75924190 0.75170676
Direct configuration=      2
0.11255617 0.01133137 0.98602310
0.00364600 0.08059983 0.41670161
0.02465133 0.61711106 0.99342558
0.99595144 0.42152049 0.58338801
0.57750393 0.91654747 0.01116898
0.58001821 0.91626608 0.49079508
0.51934506 0.48143801 0.11171229
0.57753711 0.58693054 0.49513221
0.24255165 0.58160201 0.17459316
0.27267829 0.39323570 0.77884757
0.26504432 0.88811000 0.27372574
0.23388801 0.02193056 0.86127936
0.82793342 0.51017894 0.34344955
0.82692245 0.50807885 0.66819852
0.83855528 0.00830084 0.32821458
0.72037312 0.01025656 0.86346746
0.11159576 0.30212950 0.23684836
0.02432922 0.27294385 0.64802136
0.07835657 0.74939949 0.16066519
0.98288735 0.74127313 0.64119867
0.58319689 0.16755153 0.24432199
0.49943813 0.33353302 0.66729195
0.50137308 0.83293440 0.17106966
0.47407852 0.76568491 0.86805478
0.36359186 0.51910621 0.23245600
0.24978709 0.60887899 0.70624297
0.26359762 0.11473131 0.23624601
0.24059295 0.97241760 0.63635937
0.77288053 0.38861330 0.27333739
0.82924101 0.50126636 0.83358509
0.66575972 0.99356831 0.16973679
0.76226435 0.01027211 0.63627092
0.91470762 0.17611512 0.25095018
0.92002214 0.25005013 0.84887858
0.97107790 0.77231189 0.35700586
0.02141867 0.73351491 0.86489444
0.42330680 0.33671611 0.25743404
0.49470926 0.16679180 0.67340481
0.49925757 0.66856240 0.33682152
0.51805734 0.77201175 0.63976938
0.99401350 0.41509707 0.42571801
0.98995975 0.50848962 0.11643495
0.99698544 0.08949716 0.58111629
0.00115346 0.92623938 0.08400956
0.58289730 0.42353932 0.50894508
0.41900380 0.41786089 0.99798897
0.42199079 0.91725713 0.49666371
0.42060179 0.91194303 0.00163249
0.99959348 0.25770077 0.13982423
0.07413511 0.16463918 0.75788302
0.93003038 0.66157093 0.24313068
0.07724018 0.65711034 0.75002426
0.50961217 0.26921715 0.13823847
0.61350993 0.26581142 0.74129872
0.50475801 0.66216945 0.17147918
0.51796983 0.63897540 0.76586483
0.32912997 0.24748332 0.58838357
0.23299325 0.13863552 0.99704175
0.16644362 0.76296152 0.58125073
0.35783775 0.73122782 0.02972517
0.72491136 0.22787811 0.39112293
0.74435519 0.16422962 0.08493735
0.75761754 0.64647445 0.54456025
0.74498811 0.67263393 0.91936226
0.02122560 0.23332340 0.36326093
0.92245153 0.34538219 0.74730585
0.93585370 0.81641581 0.19340374
0.95780904 0.85394466 0.76727903
0.52128237 0.23567937 0.36662237
0.49629693 0.33567147 0.83394713
0.49390868 0.83474909 0.32967119
0.47996027 0.86640898 0.76483661
0.41475758 0.08237777 0.51065201
0.50513196 0.00174188 0.89180510
0.47985293 0.48043624 0.39151148
0.57988059 0.41372289 0.99399665
0.11255390 0.98426267 0.51529692
0.99942108 0.92297000 0.91612308
0.11207691 0.49347095 0.50036107
0.11024806 0.47998184 0.02499847
0.41609726 0.08594595 0.99753367
0.52798044 0.98346819 0.60999654
0.51329258 0.51257514 0.89069026
0.42602734 0.41138811 0.50918840
0.88505881 0.98637802 0.98300833
0.00462114 0.92057779 0.41750793
0.97988571 0.39294303 0.97433387
0.99916546 0.58711311 0.41972394
0.58252384 0.08204133 0.00454194
0.57900902 0.09112646 0.50699799
0.58116723 0.58850624 0.00471939
0.41622412 0.58883506 0.49760813
0.99884377 0.08485792 0.91275959
0.88590296 0.98422543 0.48814016
0.01481437 0.52301463 0.88666701
0.00499375 0.58986141 0.58047817
0.33634044 0.00679928 0.33467478
0.36242165 0.02530222 0.73666926
0.24827390 0.57627898 0.33587365
0.13302983 0.47505878 0.73184079
0.74191357 0.11142749 0.25525856
0.82091773 0.91773961 0.75826129
0.67038082 0.49770948 0.16895273
0.66477549 0.49970644 0.66614387
0.16712173 0.99697666 0.17290393
0.13395226 0.98563944 0.73678551
0.25564684 0.41863320 0.16260871
0.35955565 0.51543175 0.73124762
0.77140496 0.88976516 0.27141846
0.66545332 0.08842608 0.74750179
0.66568002 0.50762184 0.33467892
0.73112836 0.61692057 0.75999350
0.35484507 0.25984588 0.95952597
0.33995984 0.24410000 0.42105097
0.26236210 0.83647239 0.91775420
0.32966757 0.74899948 0.57991417
0.86211784 0.22727122 0.02320281
0.78103685 0.23783911 0.61392203
0.86108377 0.77648043 0.98542883
0.74739359 0.70824099 0.39195803
0.14151074 0.27989632 0.03409174
0.17056409 0.26140359 0.41871569
0.21723777 0.67755228 0.07430293
0.16103705 0.75003471 0.41750224
0.63945704 0.24947208 0.99635491
0.64262442 0.26670514 0.53386757
0.64054591 0.76785668 0.02684432
0.73530947 0.80046189 0.60788054
0.58670510 0.33715941 0.25424980
0.38235285 0.25317075 0.75594621
0.38717514 0.73007263 0.23352079
0.61190527 0.75031547 0.77299531
0.96254499 0.35263586 0.27340444
0.92261710 0.16590295 0.73717617
0.08242131 0.65967368 0.26788755
0.90907473 0.67573303 0.75673957
0.99850525 0.08739830 0.08095943
0.99277616 0.92334601 0.59082418
0.88629444 0.52563397 0.01105713
0.88361385 0.51696859 0.51105885
0.48342130 0.02157739 0.11383765
0.51361962 0.02635035 0.39124162
0.41492042 0.57935320 0.00639814
0.47896537 0.52215555 0.61313444
0.16888570 0.00742073 0.33281844
0.25080747 0.11362579 0.71965505
0.13658239 0.47779624 0.24441312
0.23685610 0.45969939 0.63742645
0.66364438 0.99891865 0.32834901
0.82489314 0.07608047 0.75790254
0.77092171 0.60871169 0.23498478
0.66605469 0.49828249 0.83631648
0.08668896 0.15983380 0.24600166
0.06337039 0.31785369 0.81609271
0.07982039 0.84104854 0.26369928
0.10293900 0.80339050 0.73588282
0.42090879 0.17235725 0.24925873
0.50742100 0.17145881 0.83247303
0.61536689 0.73926361 0.25896663
0.38875044 0.72152129 0.73375779
0.26428195 0.36743358 0.98155725
0.26890772 0.36064413 0.48778660
0.14300690 0.79074967 0.00904990
0.32582702 0.74450828 0.41033550
0.75697286 0.33764464 0.92553556
0.76106343 0.36465668 0.48362878
0.75501715 0.83512666 0.08821214
0.76710573 0.85497429 0.45494709
0.26304431 0.42030492 0.33423848
0.23207470 0.53149542 0.85647138
0.33443995 0.99648902 0.16917301
0.28185671 0.89193179 0.77038053
0.82798375 0.49232231 0.16697055
0.73539383 0.38835810 0.73930413
0.83367015 0.00324644 0.16680554
0.66190714 0.91789934 0.74186640
0.28744531 0.23939361 0.10841699
0.17000398 0.25815727 0.58268927
0.25589786 0.83717168 0.08732508
0.26460897 0.86101564 0.47661598
0.75036700 0.33393193 0.08643679
0.76733957 0.13628486 0.51304902
0.75506736 0.66499888 0.07844270
0.86102977 0.74101458 0.51682558
0.23134037 0.14101786 0.48031558
0.20864473 0.23619063 0.89126729
0.23291734 0.63965190 0.49054632
0.24427700 0.67761849 0.91599978
0.86475760 0.26670216 0.47518044
0.75276406 0.17022336 0.91861152
0.63457174 0.74418506 0.48648128
0.74211719 0.83957026 0.92238117
0.12778289 0.13292920 0.37646831
0.12978807 0.11757123 0.88089835
0.12867397 0.62008587 0.38769092
0.11686246 0.62506934 0.87783327
0.62224504 0.12737326 0.37443132
0.62793099 0.12326554 0.87853765
0.62672395 0.63499290 0.37523168
0.61986213 0.62583151 0.87016864
0.38113236 0.37349003 0.38352159
0.36886290 0.37169004 0.87634190
0.36729272 0.87427849 0.37272518
0.38390333 0.87649909 0.87049031
0.86754859 0.37767662 0.38223570
0.87886832 0.37791078 0.87697329
0.87793374 0.88168142 0.37431769
0.87251406 0.88014591 0.88305388
0.37219526 0.12424869 0.12833470
0.36887253 0.12640757 0.63567181
0.36962963 0.62721574 0.13109250
0.37329204 0.62256015 0.63077344
0.87489540 0.13064545 0.12649695
0.86338457 0.11941594 0.62363437
0.87614532 0.61474568 0.12467512
0.87669225 0.63299967 0.62159596
0.12473406 0.38365493 0.12804952
0.12088487 0.38188718 0.62302149
0.12549425 0.87378315 0.12853029
0.12443938 0.88802597 0.62628406
0.61844577 0.37385331 0.12200060
0.62933817 0.36940445 0.63327774
0.62688433 0.86865834 0.12963072
0.61487857 0.87290377 0.62038782
0.04618975 0.43642860 0.31634859
0.04492909 0.44409728 0.80390398
0.06097928 0.95005302 0.31074941
0.04489030 0.94142231 0.80428462
0.56383094 0.44381498 0.31327305
0.56116714 0.43746451 0.81108999
0.55341323 0.94397688 0.31426821
0.56203701 0.94652256 0.80509054
0.44058921 0.06336996 0.30623270
0.44933019 0.06556660 0.80952107
0.44773920 0.55968805 0.30821489
0.44461169 0.55429968 0.80632430
0.94543491 0.06603843 0.30639723
0.93378749 0.06438069 0.80925685
0.93556072 0.56283091 0.31860744
0.93377091 0.56183589 0.80349579
0.44771568 0.44189407 0.19684600
0.44387932 0.43892289 0.69302458
0.44286556 0.94258264 0.19313217
0.44537946 0.95325463 0.69127576
0.93438082 0.44408573 0.20080085
0.93061370 0.44664476 0.68362615
0.94264023 0.94577967 0.19275216
0.92614309 0.94738797 0.69313818
0.06106189 0.05836274 0.18745428
0.04856250 0.06009739 0.69201876
0.05330532 0.55673024 0.20591419
0.05319427 0.55672305 0.68788179
0.56113293 0.05691574 0.19503218
0.56314837 0.06603744 0.68902287
0.56495605 0.55688137 0.19181853
0.56096680 0.55436753 0.69333729
0.31415848 0.06479605 0.43978483
0.30899681 0.05774150 0.94938401
0.31253801 0.56467521 0.44041464
0.30685856 0.57326596 0.94624776
0.80193785 0.05378826 0.43623950
0.79595473 0.05735388 0.94649576
0.79500223 0.56967928 0.44944497
0.79789215 0.56034661 0.93998485
0.31372750 0.45033888 0.05679890
0.31898098 0.44323321 0.55463413
0.31792130 0.93711871 0.06384605
0.31407626 0.94016923 0.54944303
0.80494676 0.44365875 0.05439599
0.79741325 0.45012752 0.56116547
0.80431956 0.94517100 0.06315730
0.79534185 0.93383570 0.54783762
0.20205475 0.44356388 0.43780966
0.19454819 0.45565148 0.94428876
0.19608295 0.94772628 0.43562148
0.20028327 0.93786142 0.94618389
0.68426269 0.44666596 0.44360749
0.68617700 0.43964232 0.94215254
0.68284411 0.93831454 0.43051454
0.68150923 0.94166633 0.95269432
0.19501734 0.04878804 0.06505707
0.19981267 0.05576659 0.55715415
0.19089602 0.56105485 0.06678579
0.19883128 0.55052513 0.56025191
0.68364450 0.05920373 0.06841388
0.68734573 0.05514300 0.55172438
0.68653471 0.55905856 0.06023762
0.67722440 0.56225847 0.56258028
0.43232327 0.30308012 0.04878803
0.43494256 0.30639496 0.56892751
0.43999689 0.80746005 0.06888463
0.43371468 0.80838194 0.55584138
0.94340318 0.30856142 0.05159316
0.94562964 0.30895635 0.55819423
0.94420599 0.81844834 0.06383755
0.94485869 0.81419857 0.55619039
0.06242121 0.31086143 0.44324974
0.06375738 0.30758592 0.94287706
0.05989473 0.81279202 0.43758556
0.05509098 0.81969224 0.94013185
0.55648634 0.30925719 0.45730855
0.55489827 0.30696549 0.93658876
0.54752530 0.81010162 0.43666884
0.55496650 0.80689098 0.95118026
0.44488431 0.19014403 0.45015949
0.44225557 0.18695607 0.93309588
0.43196575 0.69241634 0.43559760
0.44035847 0.69072254 0.95420143
0.94998493 0.19018999 0.44718912
0.94392357 0.18722425 0.94443707
0.94500994 0.69603307 0.44527217
0.94544900 0.69924490 0.95186785
0.06083852 0.19400228 0.05979792
0.06523635 0.19597993 0.56380582
0.06981388 0.70606638 0.05496809
0.06291009 0.70014461 0.56013608
0.55319086 0.19379259 0.05498416
0.55532056 0.19312288 0.57122618
0.55961380 0.69173439 0.06786932
0.54795743 0.69360289 0.55170759
0.31686625 0.31673053 0.19729528
0.29631291 0.31104858 0.69127910
0.29951018 0.80245824 0.19519401
0.30890554 0.80269297 0.69271770
0.80807556 0.31009741 0.19049058
0.81573591 0.30747108 0.70180546
0.81565666 0.81517759 0.19046969
0.81870046 0.81350299 0.69770328
0.31333059 0.19620390 0.31000281
0.28920456 0.19341657 0.80520632
0.30010467 0.68495690 0.30570848
0.29538771 0.68039345 0.80104848
0.80520701 0.19436494 0.30669347
0.81923129 0.18583246 0.81444228
0.82549106 0.69064753 0.30033531
0.80432654 0.69622076 0.81397331
0.19711984 0.20790076 0.19475750
0.17347225 0.19954545 0.69032462
0.17977991 0.68581541 0.19367447
0.17650969 0.70534470 0.69085598
0.68941455 0.19347176 0.18879706
0.70120874 0.19399559 0.69754256
0.70355730 0.69356272 0.18845091
0.69366062 0.70958855 0.69350327
0.20026521 0.31833482 0.31540048
0.18438146 0.31801998 0.80856817
0.18566980 0.80393186 0.31103938
0.19733325 0.81428963 0.81188033
0.69155017 0.30803201 0.30755659
0.70064073 0.30260713 0.81848128
0.70626089 0.79882442 0.31231642
0.69727270 0.82178562 0.81114714
0.99865721 0.00470072 0.99787818
0.99918742 0.00103658 0.50234159
0.99996066 0.50481953 0.00106075
0.99733598 0.50418297 0.50156065
0.49735763 0.00162688 0.00369237
0.50142527 0.00314536 0.50131267
0.50144075 0.50062331 0.00158310
0.49708598 0.50289854 0.50220601
0.00963397 0.24809201 0.25192228
0.99332734 0.25159571 0.75695412
0.00846161 0.74906851 0.25084353
0.00256239 0.74738005 0.75308207
0.50458857 0.25339266 0.25271804
0.49851244 0.25359383 0.75168909
0.49982730 0.74771572 0.25113645
0.49832367 0.75217813 0.75450425
0.25264912 0.00139303 0.25222663
0.24922541 0.00086166 0.74787195
0.25116684 0.49758782 0.24991783
0.24587574 0.49999130 0.74556741
0.75120995 0.99932935 0.25073453
0.74151934 0.00129613 0.74978116
0.75100314 0.49908022 0.25458599
0.74550539 0.50268828 0.75093429
0.24782562 0.25340878 0.99961756
0.25271999 0.25005952 0.49985744
0.25088287 0.75766943 0.00145676
0.24701208 0.75153416 0.49738316
0.75181858 0.24970809 0.00391420
0.75336224 0.25037949 0.50192583
0.75066239 0.75449907 0.00245484
0.74836201 0.75161863 0.50132439
0.00160474 0.00452017 0.24918671
0.98729994 0.00388952 0.74949654
0.99088318 0.50073970 0.26218018
0.98892345 0.50255513 0.74369010
0.49927153 0.00129280 0.25219487
0.50636303 0.00899595 0.74897513
0.50778849 0.50090538 0.25275001
0.50428679 0.49451004 0.75092200
0.25735734 0.99399854 0.00755350
0.25759332 0.00247293 0.49435276
0.25319236 0.51168157 0.00438140
0.25985939 0.50093948 0.49710614
0.74045042 0.00121735 0.00901462
0.73982858 0.99526749 0.49031573
0.74225283 0.50073345 0.99980807
0.73737313 0.50714263 0.50369524
0.00342319 0.24832786 0.99727696
0.00733952 0.25137742 0.50360008
0.00253959 0.76271370 0.00481958
0.00501526 0.75612414 0.49961581
0.49541989 0.24802081 0.99286420
0.49651000 0.25001582 0.51250326
0.49900659 0.74910280 0.01150201
0.48890558 0.75130906 0.49411480
0.25787629 0.26063011 0.25639622
0.23425503 0.25510117 0.74775232
0.23991314 0.74431464 0.25139774
0.24491332 0.75073502 0.75048625
0.74883762 0.25239715 0.24565311
0.75994678 0.24707592 0.75964237
0.76412577 0.74954862 0.24633530
0.75532375 0.76135472 0.75416493
Direct configuration=      3
0.11241271 0.00564351 0.98865469
0.00395079 0.07656272 0.41286170
0.98408021 0.61629092 0.01592723
0.99740777 0.42506805 0.58402616
0.57763293 0.91531950 0.00751318
0.58165850 0.91402534 0.49223889
0.52039021 0.47962078 0.11149402
0.57792731 0.58378876 0.49432931
0.24320214 0.58336641 0.17665542
0.26056783 0.38867104 0.78018197
0.26367270 0.88566866 0.27241876
0.24207585 0.02164353 0.86329245
0.82764264 0.50944678 0.33934350
0.82692762 0.50529491 0.66592753
0.83987386 0.00654226 0.32870852
0.72003252 0.01009720 0.86508905
0.09217544 0.33238670 0.25401955
0.00815987 0.26206897 0.64016855
0.06365872 0.75273415 0.15235993
0.01466915 0.76177004 0.64035634
0.57863409 0.16648640 0.25039255
0.49723180 0.33306272 0.66679365
0.49882588 0.83348167 0.17099746
0.47207472 0.76330559 0.86709423
0.36312516 0.52077215 0.23317631
0.26318386 0.60745320 0.71267552
0.24792255 0.11350050 0.25148189
0.23620953 0.96684336 0.63931314
0.76867006 0.38747711 0.27099206
0.82990473 0.50043526 0.83133874
0.66540480 0.99376567 0.17015143
0.75454223 0.00754105 0.63740310
0.89463019 0.21255807 0.23078322
0.97813545 0.26805593 0.86424779
0.97320738 0.77031950 0.35853825
0.01185938 0.74264505 0.86419240
0.41878552 0.33681260 0.25148968
0.49470714 0.16656958 0.67374517
0.50086641 0.66815465 0.33547195
0.52341940 0.77221751 0.63956938
0.99357121 0.41418551 0.42507900
0.98235347 0.50645547 0.11328674
0.00040889 0.08995811 0.58205632
0.00227313 0.92417773 0.08643648
0.58088618 0.42152080 0.50914793
0.41806470 0.41700998 0.99753828
0.42185407 0.91767309 0.49701755
0.41783230 0.90972282 0.00752244
0.01928321 0.27644135 0.13866864
0.07645811 0.16777970 0.75629204
0.92511267 0.66424982 0.23959172
0.08299146 0.66528662 0.74914584
0.48548119 0.24177583 0.13668985
0.61278085 0.26751979 0.74057243
0.50371018 0.66076138 0.17187039
0.52009575 0.63893422 0.76460322
0.32432818 0.24548544 0.58864414
0.23293374 0.13577250 0.99704313
0.17057268 0.75892169 0.58275229
0.35565752 0.72943655 0.03049040
0.71876993 0.22816515 0.39157038
0.74105626 0.16295514 0.08555148
0.75929460 0.64316714 0.53690630
0.74945933 0.67271484 0.91927349
0.01626828 0.22931197 0.35718617
0.91784210 0.34386510 0.75168465
0.92986810 0.82800722 0.21771457
0.92687430 0.83698397 0.75601904
0.49348936 0.25680804 0.36615364
0.49682906 0.33647568 0.83222395