Li192 P32 S160 I32
1.0
20.433000 0.000000 0.000000
0.000000 20.433000 0.000000
0.000000 0.000000 20.433000
Li I S P
192 32 160 32
Direct configuration=      1
0.09565969 0.34048786 0.26393340
0.20745261 0.21248303 0.89982040
0.14629686 0.71365892 0.46888372
0.22501222 0.51166765 0.65309715
0.64279841 0.95462510 0.24024539
0.56720562 0.14683845 0.75452186
0.87419754 0.55523765 0.03794752
0.85034707 0.41182052 0.75152755
0.22873983 0.21426474 0.40315030
0.15340135 0.01866325 0.81719217
0.23365624 0.62162314 0.27456511
0.20808682 0.60833433 0.77914169
0.37976967 0.21766826 0.37718574
0.87982038 0.10642839 0.01192850
0.50250528 0.40592312 0.61739206
0.53579839 0.78185255 0.63752115
0.31262012 0.08605706 0.23436853
0.02511967 0.08691838 0.88378541
0.15063357 0.50841447 0.33656151
0.08531659 0.47902136 0.91206034
0.63371229 0.00020190 0.39119593
0.48474246 0.08195076 0.92409417
0.67500543 0.69550456 0.48734973
0.47364213 0.66987029 0.87616583
0.02696508 0.19760337 0.38364587
0.26396925 0.14207179 0.03722157
0.11218509 0.58956831 0.48138878
0.32623307 0.73881649 0.92466842
0.62049683 0.12502984 0.26845428
0.66713703 0.01321864 0.63784313
0.49188233 0.38843815 0.39707744
0.75008898 0.84144619 0.89961693
0.22207125 0.00351625 0.35495388
0.12145855 0.13660436 0.99037035
0.26541104 0.66572523 0.10351550
0.13644789 0.99370534 0.63620724
0.74008370 0.09114104 0.33825758
0.84993715 0.25217901 0.91255808
0.86512993 0.74964851 0.38481994
0.63160580 0.69992845 0.97661927
0.07719069 0.00082781 0.40080731
0.14639400 0.32727696 0.00376075
0.13154039 0.73060508 0.32373553
0.86908316 0.62320181 0.24895578
0.52714810 0.12298147 0.38753387
0.87365321 0.14595051 0.76174275
0.67822835 0.56609352 0.18417642
0.73348824 0.47755266 0.85053915
0.16356991 0.43033674 0.75656791
0.24221974 0.64993666 0.42055147
0.00596825 0.69421000 0.86447662
0.24348198 0.84127633 0.56753856
0.73306748 0.68138748 0.88001577
0.82477537 0.32716491 0.51032077
0.50697391 0.60037637 0.41278933
0.74687568 0.89960050 0.73557256
0.36436632 0.23684311 0.03810803
0.08904621 0.25593546 0.66774856
0.02763908 0.83570873 0.16133319
0.36058349 0.97668496 0.77659400
0.67960418 0.28338079 0.92543948
0.56832509 0.28127311 0.64514197
0.64138158 0.75586339 0.10185283
0.25221390 0.68693637 0.60950116
0.15852177 0.49396649 0.17145373
0.22468391 0.29506105 0.60380995
0.32156652 0.79942604 0.06486434
0.26192766 0.82113627 0.40677652
0.69401835 0.58817046 0.73990686
0.62712885 0.40361635 0.74905298
0.73181326 0.83756658 0.07515931
0.75673641 0.82857376 0.39061318
0.92244708 0.40168890 0.05264697
0.84703323 0.24471289 0.40216529
0.09051226 0.97060887 0.08113932
0.01723385 0.89016537 0.62111305
0.50915373 0.40825763 0.11928231
0.64043024 0.49343190 0.62242032
0.62614302 0.86630370 0.99008811
0.22066987 0.90903988 0.68646765
0.26978803 0.39467204 0.28330230
0.02883580 0.46243958 0.63095832
0.16052611 0.75956593 0.10460572
0.22996716 0.90463015 0.84105600
0.41136660 0.33613233 0.22321405
0.60542102 0.39922168 0.51651659
0.59747533 0.01164881 0.08532453
0.59741869 0.76700561 0.33156212
0.59921624 0.31169825 0.24442974
0.25723047 0.48302577 0.87154234
0.14980168 0.91654513 0.23504066
0.08151946 0.85656563 0.73701057
0.65638429 0.48360236 0.31494279
0.70254153 0.28404618 0.59749817
0.74203651 0.94967295 0.14027482
0.71655416 0.11565437 0.78050760
0.67253784 0.23895068 0.08673279
0.49057828 0.12425445 0.61196694
0.60363001 0.50559299 0.92477396
0.35085952 0.56696821 0.75431435
0.83844688 0.21352540 0.10978307
0.65941837 0.16302579 0.49846999
0.84550488 0.51024195 0.17995086
0.75372268 0.65813953 0.58912527
0.39209271 0.00130383 0.37726305
0.27631631 0.08377762 0.70851294
0.38637929 0.60515590 0.03929346
0.50997381 0.61223872 0.61029157
0.75890585 0.09368148 0.15838358
0.00279192 0.09972784 0.60054870
0.77372372 0.66183584 0.07976653
0.97569521 0.61224837 0.60057317
0.49456132 0.16212325 0.13151225
0.41820295 0.02313746 0.62329118
0.39829509 0.63928637 0.24995940
0.36353643 0.72671316 0.52570237
0.99318316 0.12603905 0.12956377
0.89372879 0.25767051 0.65868591
0.90613238 0.73580373 0.12409095
0.90738220 0.64924957 0.72485313
0.21847569 0.97096881 0.14464226
0.39761038 0.14692428 0.73714233
0.17549251 0.64390795 0.00194915
0.33557528 0.40690120 0.76898600
0.77618809 0.35416378 0.00101707
0.82284883 0.00069584 0.66001771
0.00051099 0.63171658 0.13437989
0.87694988 0.61866186 0.49532832
0.23799926 0.05652696 0.86774915
0.19004767 0.16849432 0.53241806
0.48473168 0.60217320 0.11499334
0.39488470 0.50720007 0.57225434
0.72247419 0.13480878 0.97336983
0.80911870 0.14488546 0.50902284
0.81639804 0.99733387 0.82838848
0.81794538 0.52205041 0.65189715
0.15734970 0.08739489 0.24945025
0.34285174 0.14643802 0.52255191
0.32211105 0.51133131 0.17817388
0.10844218 0.76892609 0.63468239
0.85706883 0.02659178 0.21021243
0.00070811 0.34766710 0.84854691
0.03927033 0.63068382 0.33807187
0.74811532 0.84138942 0.56848677
0.74576784 0.42582056 0.18056908
0.38731170 0.49493799 0.90065974
0.10721712 0.91190166 0.52265112
0.17960063 0.75022046 0.90215462
0.72213542 0.60498238 0.30090452
0.21621987 0.27282052 0.11970880
0.89881070 0.98715922 0.38895021
0.01095747 0.89649843 0.91161758
0.30911129 0.49969148 0.35496715
0.37621563 0.01287254 0.08909590
0.38910033 0.90551940 0.47742342
0.10631367 0.17893812 0.79067095
0.83051132 0.47851699 0.34192909
0.66816679 0.22764499 0.39018026
0.85101418 0.86071246 0.48169399
0.84996567 0.73399890 0.56529580
0.10816551 0.41718556 0.49866606
0.25618492 0.34759175 0.91505772
0.41637717 0.78297383 0.36833029
0.39515534 0.81291437 0.74943243
0.97015492 0.37333887 0.38825457
0.91024247 0.50079545 0.89988015
0.57548493 0.90967444 0.49953793
0.86273030 0.77536105 0.98438292
0.31778818 0.35697492 0.50293083
0.39522742 0.40252423 0.00362852
0.17719992 0.85669261 0.00619081
0.39600551 0.73081627 0.15253918
0.88647096 0.43718600 0.48959121
0.91331967 0.84647710 0.75430609
0.77975999 0.92329375 0.29524831
0.65747749 0.99514261 0.81710243
0.35513314 0.24438523 0.62286135
0.47408695 0.36677904 0.87415306
0.45724962 0.88158895 0.29245539
0.51959455 0.88816949 0.12165751
0.88517495 0.34724473 0.27534482
0.91616290 0.99890393 0.08956051
0.98514697 0.86780851 0.38581378
0.90731943 0.14838135 0.23799400
0.00318853 0.31644381 0.15404540
0.38678682 0.25901255 0.85603845
0.30339346 0.90783952 0.26599454
0.48625084 0.87731132 0.87289560
0.74735878 0.34732370 0.42508665
0.73088727 0.39926226 0.66055510
0.90390332 0.85106782 0.27204848
0.59674085 0.85519755 0.74735002
0.37892717 0.63071682 0.62857234
0.12087198 0.61841412 0.88552848
0.62961602 0.87529241 0.62519974
0.85432123 0.37607077 0.87834100
0.36276363 0.13613567 0.12753714
0.35666320 0.36807947 0.37883614
0.62140374 0.63168767 0.36305269
0.11535773 0.36557172 0.12817955
0.13588896 0.38635595 0.62763799
0.60969850 0.61736625 0.86963406
0.87586760 0.88343506 0.87394267
0.12759126 0.12215033 0.38384661
0.62642034 0.11744053 0.88051168
0.63390764 0.37044443 0.12992789
0.87794553 0.12433103 0.63125019
0.36198156 0.86584049 0.87406007
0.00342053 0.00647796 0.98572287
0.00698360 0.99557058 0.49582612
0.99607140 0.50484151 0.00396148
0.00262113 0.51106093 0.50644897
0.48908611 0.97688548 0.01065026
0.48517267 0.00481807 0.49579493
0.48561647 0.51059203 0.01508011
0.51114433 0.49106220 0.50159255
0.98718836 0.25545076 0.27209953
0.98681815 0.23581935 0.75146513
0.00935793 0.73792807 0.25418386
0.99988495 0.75127008 0.73675150
0.49132186 0.23750321 0.24669772
0.47901288 0.25767558 0.73958392
0.50239120 0.75853780 0.24915509
0.51090630 0.75099418 0.75546306
0.23758261 0.00198188 0.25297076
0.24253900 0.99160927 0.76398289
0.24230190 0.50646990 0.26371206
0.25539871 0.50510527 0.76118091
0.74561939 0.01023880 0.24079756
0.74539785 0.01473072 0.74462954
0.75545537 0.50766362 0.24649615
0.73971473 0.48403291 0.72931147
0.24178867 0.25480589 0.01183024
0.28434620 0.24180541 0.51165816
0.23363408 0.74086239 0.01165433
0.25739459 0.74106341 0.49903620
0.76370471 0.24394645 0.00431859
0.75220016 0.24444493 0.48638197
0.73701052 0.75353666 0.99298734
0.77337474 0.76142621 0.48198804
0.44948793 0.17004790 0.46347087
0.43679560 0.21351303 0.95187827
0.44662308 0.69850177 0.44937865
0.41898757 0.68754817 0.98067445
0.94307953 0.18383659 0.46199967
0.95005890 0.18739874 0.93130581
0.96001425 0.69465640 0.42665181
0.94054744 0.69208609 0.95997602
0.19297210 0.04657041 0.06390509
0.19456826 0.05671527 0.56850899
0.19746508 0.55783741 0.07817322
0.19259127 0.57640798 0.56417348
0.70495229 0.05235816 0.04707031
0.70505603 0.05894407 0.54423888
0.69208455 0.57811379 0.04744560
0.69742190 0.56621276 0.55383138
0.29831474 0.06287182 0.44317381
0.30318456 0.07536293 0.95439493
0.32668101 0.54943220 0.46108811
0.29542518 0.55775838 0.94636658
0.82336988 0.04565335 0.43910482
0.82271298 0.05512297 0.92522120
0.81631876 0.54170985 0.43952642
0.80144061 0.55179593 0.94061430
0.05351461 0.19323570 0.06399450
0.06144834 0.19288596 0.56106287
0.07051359 0.69639081 0.05429267
0.06533050 0.69005160 0.55304869
0.56491368 0.19521812 0.05288913
0.57446387 0.19079460 0.56285414
0.55076399 0.68691383 0.07012699
0.57313765 0.70247355 0.56551010
0.13274729 0.11514452 0.87552139
0.14823909 0.62818764 0.38041938
0.64216637 0.11686788 0.37846547
0.42054721 0.45729249 0.19910454
0.42727806 0.46387385 0.70321936
0.44350889 0.94988147 0.19799417
0.43588335 0.93822198 0.70618018
0.94211066 0.41029069 0.20093926
0.93095204 0.45753509 0.69284093
0.93325754 0.94026887 0.19233052
0.93900661 0.94986498 0.69477820
0.19892635 0.29441042 0.31890431
0.18077616 0.30199343 0.81661365
0.20592325 0.82030298 0.30822071
0.17903061 0.81905939 0.79427813
0.69733314 0.29663526 0.30785433
0.68555391 0.31462387 0.81012354
0.68933664 0.82950888 0.28085836
0.71349175 0.80415232 0.79853449
0.29078285 0.30932938 0.19171845
0.29796388 0.31060807 0.70065537
0.32243725 0.80371979 0.19030428
0.28969607 0.79065027 0.66904074
0.80625287 0.30696736 0.18898486
0.80142235 0.31220163 0.69087422
0.80136132 0.81937562 0.17321431
0.81981690 0.80841764 0.68059594
0.04848810 0.43695341 0.31933283
0.04926190 0.43825206 0.80552602
0.05062805 0.92939413 0.30980942
0.05282359 0.94238689 0.81713582
0.54982310 0.42360144 0.31025428
0.55156167 0.44847059 0.81629290
0.55658421 0.94249152 0.31260165
0.55527822 0.94262813 0.82413370
0.13762534 0.86745950 0.13020470
0.12968613 0.87974172 0.62018279
0.62094465 0.38249049 0.62378200
0.63361439 0.87484531 0.11872148
0.18215672 0.19021635 0.19055853
0.18993537 0.19576193 0.68790966
0.19226644 0.70560932 0.20556039
0.17773501 0.68907911 0.70135835
0.69740688 0.18278267 0.19469618
0.68025061 0.20396608 0.69128004
0.68474748 0.68703948 0.19014211
0.69089577 0.69973112 0.67329587
0.44642344 0.07321026 0.30609328
0.44337239 0.06837795 0.80680941
0.44130070 0.54204925 0.32781636
0.44835561 0.57182145 0.81876680
0.94149650 0.05762610 0.30864595
0.92962519 0.04812433 0.82312505
0.92608313 0.53962642 0.31395796
0.94584887 0.57628038 0.81283650
0.05728571 0.03579011 0.18471734
0.05286653 0.06509343 0.72040487
0.05033580 0.54015285 0.20568171
0.04752945 0.56533603 0.69178060
0.56229620 0.06398497 0.19160188
0.55379404 0.05494635 0.69311124
0.55830919 0.55323955 0.21513478
0.57221768 0.56027356 0.70258817
0.29206709 0.17253105 0.30012458
0.29705710 0.18167468 0.80894567
0.31598269 0.70099124 0.31569905
0.29280098 0.70423793 0.81401458
0.81287168 0.18027475 0.29857797
0.79481070 0.20293594 0.81657529
0.79663402 0.70664189 0.29787896
0.80781666 0.68326257 0.79182920
0.37782260 0.12592049 0.63148849
0.36657498 0.62402040 0.14816522
0.88008670 0.10832384 0.13279360
0.87606700 0.62263031 0.14021118
0.86288530 0.63575179 0.61688998
0.20410587 0.44728359 0.45460937
0.18968482 0.43573673 0.96468666
0.19083810 0.93802289 0.44515834
0.18925601 0.94328521 0.93237490
0.68471054 0.45022814 0.44222395
0.69345249 0.43585823 0.95419134
0.70204703 0.92729804 0.44118404
0.69336305 0.94410959 0.92453981
0.44763535 0.31945753 0.06510035
0.45697369 0.29792980 0.56408199
0.43705280 0.82316651 0.06643597
0.45518415 0.81434234 0.55946410
0.92732781 0.28331722 0.06762061
0.95781863 0.31819555 0.56778910
0.96621628 0.82141473 0.05979168
0.95099875 0.81439349 0.54311757
0.04720487 0.30586527 0.44748381
0.04743457 0.29952500 0.94407822
0.08021505 0.81549244 0.44708661
0.06645464 0.80652799 0.93495024
0.56139480 0.30526309 0.44200039
0.56222407 0.32632893 0.94847957
0.55935810 0.81180452 0.43416351
0.54488843 0.78936687 0.94093534
0.29995374 0.43622976 0.07240141
0.30116541 0.45034448 0.58396972
0.31111218 0.93319093 0.04177456
0.31342393 0.94772386 0.56166848
0.80984950 0.43930079 0.07131630
0.79672143 0.43036553 0.56496884
0.81087603 0.93384316 0.03777743
0.80847951 0.93289420 0.55922439
0.35634904 0.38297919 0.88615249
0.36047167 0.88111458 0.37796004
0.85334101 0.36537659 0.39745578
0.86804713 0.87084328 0.36878389
0.25280491 0.99836613 0.99014782
0.24746577 0.00601467 0.50664978
0.24740734 0.49833426 0.02037018
0.25258761 0.50914655 0.51858964
0.75844707 0.99656947 0.97749651
0.75756229 0.99155761 0.49494961
0.74791199 0.49920175 0.00841846
0.74825602 0.49949531 0.50222394
0.24414854 0.24235472 0.24313613
0.24302591 0.24890258 0.75505630
0.26070823 0.75871119 0.25115926
0.23699895 0.75505563 0.74587715
0.75470330 0.24657510 0.25050816
0.74578126 0.25829317 0.75476255
0.74417227 0.76120433 0.23023298
0.75759271 0.74776943 0.73008829
0.99753831 0.99156568 0.24961277
0.99253365 0.00168310 0.76072049
0.98716218 0.48497388 0.25630655
0.99062487 0.51109802 0.75233429
0.49880862 0.00420752 0.25418927
0.49497791 0.00076057 0.75300856
0.49596610 0.49230091 0.26014538
0.49692000 0.50850802 0.75391997
0.99181842 0.24171888 0.00098904
0.99796167 0.25044206 0.51054685
0.01244021 0.75586034 0.00144999
0.01018367 0.75281971 0.49748708
0.50970588 0.26322823 0.00119445
0.51258281 0.24323803 0.50180314
0.48466598 0.75335663 0.01618791
0.50745886 0.75396779 0.50106879
Direct configuration=      2
0.09624286 0.35186133 0.26730890
0.19376218 0.21068388 0.88929542
0.14517990 0.72223424 0.43857823
0.23442638 0.49628424 0.65331310
0.63871618 0.93890687 0.23160254
0.53048877 0.13066964 0.77900154
0.87963925 0.56275624 0.02703648
0.81633081 0.39772099 0.76548635
0.22244425 0.22265242 0.39724860
0.14261704 0.02504908 0.80339279
0.21894593 0.60531288 0.29539658
0.21431716 0.59622621 0.78116228
0.37968236 0.24503077 0.38906387
0.86506485 0.10870775 0.01762830
0.52578762 0.39543282 0.62516296
0.53412029 0.76433922 0.62193233
0.33619603 0.05938266 0.23336819
0.00417195 0.12752811 0.87607631
0.16286141 0.49221379 0.35506227
0.09986663 0.48673185 0.92177583
0.64003173 0.00320256 0.36907751
0.48370300 0.08643490 0.94333473
0.68400221 0.69052926 0.48790094
0.50780232 0.69392009 0.86162369
0.00657399 0.17219600 0.37811299
0.27001115 0.14103033 0.02761842
0.10618351 0.58806723 0.49085226
0.31667736 0.74669215 0.93057875
0.62311687 0.14021696 0.25893963
0.64478728 0.97954787 0.67146423
0.49260907 0.38382856 0.41298370
0.76075071 0.84117106 0.92332301
0.25539793 0.07104831 0.35463026
0.13131712 0.04909916 0.95851504
0.27767258 0.67053843 0.10028797
0.15546589 0.98012482 0.64530138
0.74088279 0.08485965 0.32875287
0.82323636 0.24839688 0.91208870
0.85653955 0.76886231 0.39526187
0.64409176 0.69381223 0.98671290
0.09233240 0.99096608 0.39062858
0.13880175 0.30750538 0.98392360
0.11396365 0.71842822 0.30074795
0.85931526 0.62444097 0.24022191
0.52556661 0.11698658 0.39075809
0.88460034 0.15258796 0.76726381
0.66851549 0.50177100 0.15569841
0.75369752 0.48237170 0.86189721
0.16892302 0.42394160 0.76479969
0.27322761 0.65882369 0.42105912
0.01030265 0.67174007 0.85329522
0.22971610 0.80763799 0.58681993
0.73567581 0.70627223 0.87832572
0.84554865 0.33943922 0.51319365
0.51237655 0.58683683 0.42154944
0.74527309 0.88786409 0.75258608
0.35945326 0.23513155 0.02862641
0.04177217 0.28753857 0.64465647
0.03006108 0.85099956 0.12440810
0.34625091 0.96860329 0.77978137
0.65332447 0.26025133 0.92280449
0.58518877 0.25747918 0.66958638
0.60901123 0.78467380 0.14046650
0.24909520 0.66244453 0.58245375
0.14713133 0.50721518 0.18464133
0.21685398 0.28261111 0.60151292
0.30741657 0.80988960 0.06799341
0.26744449 0.84190595 0.42508434
0.66247358 0.58487469 0.75360269
0.64609643 0.42230040 0.74615631
0.73851912 0.83558961 0.08797442
0.72500980 0.82582429 0.42862128
0.00668880 0.38982046 0.05692705
0.83705426 0.24612052 0.41307001
0.09896287 0.99650945 0.10597669
0.01613541 0.89719675 0.60227107
0.49684898 0.41175707 0.10428833
0.63798580 0.49099166 0.63694172
0.61386003 0.87311669 0.98661185
0.26568588 0.91241560 0.67498225
0.25338033 0.39017670 0.21903487
0.01568952 0.46335299 0.62522008
0.15083871 0.78385885 0.12570944
0.21373528 0.92502253 0.83451694
0.42159779 0.34609370 0.21478236
0.63522023 0.35804017 0.50242762
0.59604520 0.00971815 0.08000072
0.59773160 0.77784736 0.32634079
0.57836651 0.33962545 0.25272280
0.27692936 0.47018145 0.88236265
0.15630081 0.91656977 0.24077130
0.08425131 0.85596659 0.72740084
0.65398233 0.49163486 0.32105418
0.69389050 0.25547672 0.59667331
0.74245933 0.96073273 0.12896756
0.72583458 0.10244860 0.74825157
0.66931045 0.26855979 0.07885122
0.47265574 0.11182902 0.59388097
0.59308971 0.49598214 0.92406677
0.35633517 0.54908313 0.73178734
0.83166556 0.21283953 0.11685284
0.65676020 0.14393942 0.49063992
0.83253416 0.52285952 0.16311445
0.77089791 0.65041348 0.59491555
0.40868202 0.98945505 0.38377707
0.23867375 0.10046717 0.66595074
0.38592376 0.60719063 0.03011256
0.51609841 0.61289402 0.59403036
0.76123248 0.10004305 0.17308076
0.00412867 0.09045609 0.58828673
0.75313522 0.64884524 0.08057061
0.98060577 0.61658647 0.61122706
0.52107598 0.16612856 0.14699859
0.38164558 0.01310642 0.60239793
0.41365271 0.64204238 0.24034818
0.35449142 0.73725033 0.54549021
0.98938812 0.11348365 0.11698279
0.89444322 0.26080257 0.65808837
0.88605512 0.73602831 0.10966303
0.89317294 0.64513203 0.72822253
0.22595153 0.95223755 0.15752522
0.36019774 0.13912776 0.74359851
0.16036103 0.66341207 0.00728688
0.35746104 0.41453545 0.77306975
0.78756816 0.36120862 0.00461359
0.78220231 0.01421185 0.64280788
0.98565023 0.61935062 0.12971753
0.85133301 0.66055702 0.49936777
0.26183657 0.09512891 0.84624331
0.19018654 0.15959336 0.51714579
0.50176850 0.61090009 0.12111281
0.38783787 0.51023718 0.54707643
0.72692774 0.14158483 0.93670506
0.80972428 0.15938535 0.52632687
0.83314491 0.00227487 0.83666113
0.82453307 0.52970033 0.66437568
0.17752283 0.08251950 0.24038284
0.35175828 0.15391994 0.51879518
0.32959451 0.52939330 0.18532611
0.09390552 0.75701328 0.64368218
0.87496949 0.00683207 0.21995556
0.99892996 0.37255124 0.82681282
0.02856498 0.61687743 0.33152195
0.74114772 0.82030693 0.58057309
0.76604882 0.41195525 0.18493251
0.40254782 0.51255774 0.90183839
0.12427983 0.87989443 0.49442461
0.17835887 0.73798538 0.88303534
0.73096127 0.61428148 0.30277909
0.22011961 0.26321451 0.10325458
0.89021876 0.98995006 0.39702687
0.02676679 0.90940489 0.92532076
0.33418887 0.49730959 0.33524963
0.37324800 0.03386978 0.05418704
0.41435786 0.88833397 0.48548942
0.10431277 0.15778338 0.76969159
0.81372454 0.48095692 0.35047431
0.67419376 0.22403326 0.39455828
0.85767273 0.86126682 0.47865330
0.87894621 0.74866091 0.62654026
0.10312007 0.41622110 0.50494463
0.26045880 0.33750901 0.89947289
0.38234883 0.75793871 0.35979454
0.41775783 0.82879248 0.75390792
0.98527033 0.36404624 0.38262598
0.92781613 0.50162475 0.88827599
0.57754625 0.90594155 0.50076221
0.86979559 0.79042677 0.96504428
0.27390439 0.33854379 0.46339306
0.37272869 0.38811498 0.01319914
0.16830665 0.85468290 0.00797027
0.40420105 0.74708483 0.16153192
0.89356471 0.46370343 0.46067880
0.90964563 0.85693893 0.74678590
0.78481949 0.91740257 0.30542521
0.65941949 0.99360139 0.82992985
0.36473922 0.23915468 0.62128833
0.47848685 0.38223181 0.87970269
0.46375575 0.87402556 0.30001810
0.50856046 0.87474553 0.14012149
0.90054785 0.35774206 0.26985243
0.90736690 0.99035182 0.08602095
0.99985873 0.83727070 0.33664034
0.90177468 0.15558646 0.23545716
0.02253293 0.27061352 0.13592890
0.39409389 0.26588422 0.86199544
0.29800086 0.88728604 0.29314206
0.48773205 0.89513097 0.88719007
0.75001333 0.34787263 0.41365432
0.73989962 0.38841817 0.63836928
0.89682411 0.81875524 0.26008481
0.59638408 0.84703003 0.74800902
0.38426488 0.63533154 0.62739412
0.12126453 0.60731660 0.88369642
0.61488850 0.86894395 0.62507200
0.86858908 0.37580119 0.88114033
0.36177123 0.14412244 0.12400470
0.36013153 0.36484793 0.36434733
0.62680447 0.63998348 0.37439064
0.12819078 0.36868749 0.13546622
0.13417466 0.38631031 0.62890278
0.61435223 0.61691805 0.87464581
0.88049779 0.87922167 0.86910030
0.13215557 0.12151677 0.37951989
0.62061328 0.11013772 0.88061389
0.62326067 0.37949325 0.13581712
0.86606882 0.13000378 0.64348957
0.36308599 0.86668568 0.86293837
0.00224114 0.00608382 0.99182464
0.00706566 0.98377460 0.50392004
0.99653635 0.50607455 0.99792292
0.00448495 0.51439564 0.50630037
0.48897802 0.96187569 0.99612393
0.48839928 0.99620919 0.49344331
0.47480072 0.50769492 0.01943897
0.51281849 0.48323092 0.51165972
0.00178956 0.25386098 0.26836999
0.99107248 0.24742586 0.75180128
0.00173377 0.73273327 0.25139063
0.99842606 0.75221849 0.74099998
0.49318694 0.24326891 0.25548444
0.48447159 0.25404840 0.76073075
0.50131493 0.76570250 0.25573763
0.51367014 0.75577646 0.75685183
0.24531978 0.99034290 0.25519666
0.24461582 0.01349215 0.74874965
0.23962282 0.49280456 0.26687585
0.25352540 0.49424990 0.76866759
0.74249448 0.99544584 0.23894869
0.73850647 0.99354427 0.74981507
0.75188623 0.51277812 0.24462727
0.73798810 0.49164994 0.73693500
0.24248738 0.25067288 0.98755643
0.26653111 0.24183137 0.50959556
0.23349360 0.75307033 0.01772181
0.25134934 0.74630513 0.49868488
0.74117138 0.24218202 0.99876169
0.74619625 0.24687150 0.48776034
0.74139239 0.75169862 0.98327229
0.77400202 0.74489983 0.50720616
0.45003077 0.18442214 0.45705106
0.44377302 0.20264332 0.94275575
0.44366632 0.68555082 0.44021754
0.42404031 0.69286081 0.94114148
0.93757967 0.18623940 0.46186142
0.92476825 0.18577916 0.95253057
0.93829919 0.69516092 0.43105477
0.95606279 0.69526253 0.93886168
0.18418814 0.05823802 0.06703232
0.20182785 0.05172784 0.57539906
0.18372413 0.56035205 0.08039505
0.19359918 0.55178583 0.56470105
0.69708745 0.05573229 0.05743051
0.70220280 0.06208279 0.57117207
0.67301633 0.55254409 0.04769072
0.69989770 0.56028792 0.55850046
0.31644490 0.04491609 0.45629419
0.31207649 0.05490819 0.95452642
0.31538894 0.54494271 0.45304492
0.29851019 0.54890590 0.95930818
0.79938684 0.05995818 0.43358509
0.80917500 0.05535586 0.93930356
0.80802847 0.56487312 0.44459462
0.79861631 0.56266978 0.93960217
0.05635894 0.20070476 0.06480372
0.06061446 0.19722959 0.57298360
0.06238746 0.69570181 0.07487315
0.04808395 0.69170004 0.55533089
0.57270134 0.19802875 0.04754899
0.57761730 0.18681120 0.56172314
0.54942211 0.69410718 0.06379723
0.57567498 0.70124289 0.54467244
0.12319496 0.11977814 0.87401691
0.13241951 0.62302344 0.37396786
0.63735822 0.11395038 0.36841618
0.43768641 0.45837624 0.20037456
0.43247244 0.46259056 0.68805189
0.43326011 0.95144911 0.19859333
0.42529319 0.93639555 0.68865742
0.93742788 0.44049513 0.19962332
0.92527072 0.46263650 0.70863335
0.95378956 0.93293973 0.17684751
0.94359094 0.95081225 0.67538586
0.19428155 0.29897803 0.31543324
0.17304748 0.31612489 0.81518149
0.20146375 0.80724112 0.31317768
0.17563832 0.82249131 0.79302706
0.68505777 0.30350430 0.30244152
0.69385669 0.31717189 0.81495703
0.70764128 0.82969444 0.29389982
0.69566150 0.80418778 0.80901002
0.30691946 0.28825784 0.18731671
0.30631863 0.32088567 0.69879911
0.30357583 0.82702252 0.19112253
0.30367131 0.79959093 0.69669432
0.81952439 0.29855150 0.19799192
0.79200414 0.30567255 0.69041342
0.82364138 0.81075893 0.17458416
0.80086500 0.82110622 0.68548963
0.04382103 0.44090242 0.32600680
0.05618315 0.46052056 0.81199496
0.06768151 0.92801788 0.29417453
0.04807092 0.93206444 0.80572422
0.54748592 0.43423670 0.32332382
0.55156261 0.44382159 0.80288618
0.54616055 0.95042407 0.30795876
0.55403607 0.94064220 0.80179794
0.12929231 0.89034763 0.12336262
0.13141974 0.87346144 0.62113903
0.63767098 0.36711304 0.62331736
0.63915604 0.90356465 0.10747727
0.18756704 0.18813734 0.20227433
0.18358578 0.20966605 0.69219633
0.20036552 0.69390660 0.19490398
0.18867188 0.68490664 0.67856906
0.70411293 0.18880551 0.18715117
0.67693341 0.19471879 0.70154203
0.69230360 0.71556075 0.18086965
0.69686025 0.69183214 0.68495948
0.44212852 0.06940212 0.30483084
0.44349058 0.05607113 0.80154565
0.43173391 0.55293497 0.33426659
0.44378412 0.57191812 0.80897569
0.95426522 0.04671114 0.30261157
0.94438248 0.05221399 0.80708762
0.92638258 0.55286039 0.31670542
0.94322385 0.58289880 0.80382998
0.06397955 0.06171004 0.19770828
0.05940410 0.05845841 0.69340025
0.05373240 0.55544263 0.21577120
0.05719212 0.55896405 0.68531604
0.56419491 0.05319819 0.18893348
0.54573576 0.05423987 0.67542649
0.55135323 0.56679335 0.22790127
0.56691601 0.56515876 0.69822691
0.30423612 0.18555341 0.31678034
0.29199742 0.20987257 0.81885477
0.31950340 0.69116279 0.30148596
0.26611199 0.68962409 0.82054305
0.80947945 0.19290213 0.31682282
0.79062106 0.19554530 0.81021872
0.81556048 0.70462419 0.30351673
0.82098923 0.70938788 0.80289750
0.37068091 0.11353374 0.62582269
0.38251193 0.64507091 0.14313012
0.87751088 0.11041835 0.13784865
0.86456034 0.62274196 0.11392923
0.87488924 0.62736899 0.61631874
0.20119655 0.43658420 0.45014508
0.18974367 0.43124288 0.97032737
0.19479750 0.94141087 0.43455629
0.17460329 0.95529019 0.93722954
0.69159793 0.44961110 0.43433856
0.69633433 0.43332657 0.94311220
0.69232055 0.94045420 0.45284431
0.69499058 0.93659373 0.93461939
0.44458430 0.30681521 0.06831011
0.46269456 0.30083299 0.56441434
0.44112390 0.81043608 0.05964192
0.44773708 0.80552749 0.54836800
0.91847779 0.29260762 0.06882408
0.95324959 0.31459312 0.56447726
0.95135967 0.80932801 0.05577119
0.93748507 0.81010625 0.54651545
0.06332684 0.29446731 0.44505957
0.02098177 0.33108928 0.96061396
0.05255373 0.79949143 0.43492981
0.08263780 0.80127999 0.94842439
0.56810332 0.29442675 0.43364852
0.55211713 0.32787294 0.94969387
0.55904699 0.82101035 0.43024372
0.55167950 0.78706169 0.94021721
0.31281091 0.45025119 0.08506219
0.30586559 0.44104662 0.57447657
0.29614601 0.94232414 0.06106902
0.29876819 0.91525777 0.55127772
0.81127406 0.45795859 0.06955816
0.81719454 0.44332473 0.55096050
0.81179543 0.92779371 0.04837487
0.82400244 0.95223313 0.55319245
0.37006874 0.39039269 0.89213716
0.38139959 0.86584792 0.37206451
0.86298275 0.36711430 0.39804343
0.87544936 0.87255688 0.36818712
0.23738506 0.00115420 0.00833988
0.25253204 0.98528829 0.50432281
0.24552475 0.49454116 0.02575645
0.25711182 0.49591343 0.50710798
0.75692253 0.99541185 0.99887425
0.75551036 0.00582297 0.50231688
0.74543110 0.50595263 0.00142821
0.75293654 0.49981830 0.49738708
0.24749380 0.24080952 0.25897019
0.23784657 0.26872939 0.75446337
0.25793220 0.75189989 0.25053196
0.23182662 0.74791091 0.74462840
0.75415573 0.24766797 0.25079312
0.73189828 0.25599867 0.75222487
0.76169241 0.76304631 0.24333935
0.75235922 0.74523827 0.73951156
0.00942032 0.99295301 0.24286167
0.99890719 0.99551765 0.74446952
0.98677437 0.49573553 0.26327535
0.99821932 0.51478136 0.75299297
0.49804040 0.01282807 0.24434241
0.49504784 0.99395099 0.73892080
0.48965091 0.50343229 0.27307017
0.50169804 0.51392041 0.75116222
0.98619020 0.24753152 0.01015870
0.00138804 0.24811160 0.50972702
0.01394380 0.74592708 0.00298255
0.99264206 0.74560500 0.48932885
0.50663244 0.25991756 0.00573551
0.51339252 0.24559847 0.50603561
0.49120332 0.74259369 0.00212393
0.50651164 0.75151019 0.48569232
Direct configuration=      3
0.10964515 0.35366375 0.26908803
0.17944890 0.22780016 0.90339488
0.15456455 0.73013153 0.41646461
0.26700618 0.42306393 0.65371543
0.66340426 0.91608771 0.24523103
0.55771287 0.13633820 0.76880287
0.89054702 0.60837287 0.01861352
0.82120964 0.40394564 0.76389138
0.22357687 0.23272228 0.38794796
0.13091515 0.04219919 0.76359966
0.23968936 0.61109182 0.27954863
0.19285497 0.58809326 0.71868383
0.38421917 0.24486889 0.37866365
0.87703209 0.11629352 0.01712229
0.52100355 0.40928887 0.61383540
0.54200992 0.74495767 0.62518821
0.34722118 0.03337737 0.21226547
0.00196950 0.13949036 0.87449526
0.14707950 0.53161240 0.32591961
0.10362831 0.48034872 0.92142943
0.62147412 0.99938714 0.35586414
0.51006381 0.10189647 0.99531639
0.70524734 0.66589695 0.48415853
0.49808297 0.64792458 0.84004863
0.01267698 0.13848157 0.35588190
0.25533945 0.14055983 0.99471092
0.12206442 0.58830869 0.47755472
0.32773349 0.73246341 0.92117060
0.59541492 0.15744698 0.25001629
0.65866277 0.99651105 0.66875783
0.48927780 0.39583432 0.42865181
0.74425265 0.82580569 0.94127843
0.27687059 0.06721497 0.34750244
0.10610307 0.11146307 0.96651934
0.26168340 0.65129352 0.08836392
0.13916060 0.97065075 0.64212211
0.73011811 0.09685254 0.31886724
0.81786409 0.25617261 0.90674327
0.83363561 0.74211912 0.39892824
0.64173446 0.70105534 0.98201173
0.12397204 0.99636340 0.40766805
0.13928173 0.30646274 0.03393999
0.10908521 0.70280009 0.27767701
0.92187891 0.61453660 0.22734751
0.50533625 0.11226684 0.38910597
0.90089954 0.17145054 0.77524244
0.65618812 0.51896676 0.15596808
0.73515347 0.49682684 0.84303367
0.15221604 0.42990918 0.76099356
0.26206880 0.65806557 0.41236912
0.00832365 0.66116216 0.84144609
0.21631195 0.78090170 0.59082611
0.75381826 0.68120466 0.90915985
0.84736615 0.35367997 0.49630164
0.51506138 0.57248131 0.40011310
0.75582900 0.88635923 0.78727711
0.35291719 0.22789440 0.01371679
0.04602317 0.27542296 0.64499716
0.03702704 0.84617022 0.12937159
0.34426628 0.98716691 0.76721925
0.66090702 0.24397076 0.92021312
0.55082617 0.27414436 0.64636457
0.60966125 0.77052235 0.17836945
0.25503479 0.64217401 0.56752269
0.14244591 0.50943210 0.16578465
0.21750248 0.27217809 0.61290182
0.32327935 0.83489678 0.01954199
0.27446362 0.83319628 0.43296081
0.66896786 0.58408092 0.74159800
0.63401054 0.39323989 0.75397031