Li192 P32 S160 I32
1.0
20.433000 0.000000 0.000000
0.000000 20.433000 0.000000
0.000000 0.000000 20.433000
Li I S P
192 32 160 32
Direct configuration=      1
0.10113434 0.33128450 0.26094222
0.15567427 0.22792971 0.90961181
0.14762566 0.72228911 0.45722056
0.23550837 0.48336693 0.64085457
0.65144024 0.91979222 0.24264747
0.57939987 0.16047688 0.76123894
0.89495024 0.60889515 0.01752911
0.82324213 0.40845179 0.75757238
0.24228688 0.23186251 0.40470706
0.13630527 0.01073332 0.83676254
0.22364859 0.61500207 0.28108066
0.22221081 0.60407009 0.77406261
0.40107813 0.24092678 0.35578983
0.88987464 0.10748109 0.01548007
0.51322508 0.40024733 0.61654585
0.54689590 0.76587181 0.62923754
0.32555345 0.08206095 0.24354719
0.00721649 0.11338767 0.88437604
0.15562101 0.51300532 0.33373521
0.09420617 0.50183678 0.91495854
0.60417770 0.01487518 0.39786570
0.49830134 0.10419327 0.92214664
0.68512275 0.67443397 0.48783976
0.50160058 0.66616146 0.85549715
0.02516423 0.20180816 0.37357758
0.25437845 0.14207521 0.01594067
0.11255714 0.58330971 0.47399537
0.31996177 0.74592864 0.92347430
0.61539627 0.13546980 0.26568929
0.66237501 0.00743229 0.66765588
0.49755993 0.40184879 0.40444079
0.74378330 0.83054300 0.91744601
0.23514151 0.01722977 0.36273105
0.10442558 0.10015266 0.98674645
0.26820843 0.66084657 0.09500681
0.14821149 0.98841330 0.66442146
0.73327942 0.08333678 0.34037578
0.82752971 0.25060821 0.92112274
0.85359499 0.75517014 0.40006746
0.63784645 0.71944386 0.98425932
0.09191935 0.00239243 0.41149590
0.15313172 0.33743619 0.00784954
0.12438570 0.72350177 0.29705411
0.89611018 0.63741371 0.24295909
0.51476979 0.13719504 0.37523870
0.89575954 0.14785287 0.75540969
0.66924116 0.51013517 0.16157561
0.75045416 0.50056829 0.84968680
0.16342952 0.42376084 0.76320601
0.25425931 0.66059431 0.41507822
0.00425755 0.66432376 0.84987326
0.23766248 0.82686005 0.58317939
0.75769992 0.66989204 0.91480078
0.84266522 0.33612220 0.50505302
0.51007549 0.59170707 0.40230971
0.73903412 0.89062934 0.73891541
0.35273283 0.24255741 0.02604403
0.08475352 0.25849883 0.66046837
0.02444657 0.85176232 0.14968572
0.35069417 0.99247915 0.77949549
0.66200786 0.26029843 0.92017246
0.58463291 0.27378406 0.65966556
0.60615450 0.76841784 0.14878692
0.24767473 0.66627185 0.58325508
0.16504504 0.50310443 0.16947068
0.22408901 0.28139352 0.61055928
0.30305513 0.82153785 0.06186734
0.26871091 0.83646238 0.41665816
0.67493157 0.59178105 0.74985869
0.64985578 0.40746599 0.74597187
0.73494809 0.82920873 0.08390817
0.73494052 0.82178664 0.42309972
0.90678122 0.40268145 0.01190070
0.84859493 0.25583147 0.40058995
0.09112019 0.98340322 0.09960310
0.01323512 0.89392788 0.61618282
0.50650121 0.40738621 0.09821949
0.64613196 0.49512427 0.64046345
0.60505984 0.88919960 0.01475147
0.22676620 0.89351236 0.70863729
0.24982171 0.39263987 0.25470518
0.01221541 0.44758135 0.62180097
0.15575889 0.76754019 0.10979990
0.24439890 0.91844837 0.84385223
0.40741694 0.34186042 0.23983051
0.62631090 0.37731497 0.51390746
0.59703792 0.99580122 0.10736487
0.60434275 0.74800045 0.33037688
0.59171712 0.33783504 0.24839998
0.27450214 0.47021702 0.86432544
0.15676964 0.90980459 0.24318900
0.09232400 0.84935335 0.74324581
0.66521280 0.49583140 0.32870510
0.71367355 0.27445978 0.59435538
0.73129944 0.95363025 0.14520651
0.72831035 0.11420805 0.76842020
0.66044227 0.24656609 0.08448313
0.48720326 0.11388990 0.60705370
0.59517363 0.50434473 0.91960774
0.36072218 0.54561210 0.72812979
0.83130257 0.22615157 0.09285969
0.64028933 0.13664509 0.49383699
0.83649803 0.51932816 0.16323424
0.76061385 0.64028704 0.61559719
0.39942089 0.99045691 0.39306559
0.26488508 0.08975438 0.67121429
0.38737176 0.60530932 0.01670031
0.50947412 0.60329688 0.59970342
0.75847621 0.09138837 0.16716357
0.99713865 0.09333798 0.59294833
0.76826927 0.66538386 0.09004977
0.98660534 0.61171681 0.60931506
0.48736713 0.16492480 0.14149086
0.38871598 0.00788665 0.61137483
0.39255649 0.63055839 0.24224581
0.36806372 0.72649963 0.52124791
0.98698322 0.13668325 0.13726537
0.90310149 0.25719004 0.65391354
0.89728245 0.73987221 0.14076705
0.89030889 0.64933563 0.72934384
0.22582859 0.96092326 0.14035971
0.39842927 0.15045141 0.74009005
0.15853139 0.65436707 0.00310386
0.34169854 0.40496547 0.76195069
0.73789167 0.36131017 0.01992442
0.82517936 0.00114615 0.66462588
0.99134978 0.60498715 0.11950387
0.85403803 0.64386243 0.50343966
0.23402358 0.09557030 0.84365215
0.17576059 0.16289197 0.51818990
0.48865204 0.60234742 0.11529137
0.38342921 0.52625949 0.53136204
0.72226622 0.13601064 0.98521472
0.81051129 0.15563279 0.50301719
0.82653234 0.99541508 0.83906413
0.83846425 0.51906234 0.65771854
0.16587493 0.08503138 0.24702341
0.34049800 0.14338964 0.52017116
0.32877556 0.51879511 0.16081528
0.10468099 0.75563280 0.63843790
0.85525552 0.01700701 0.23219478
0.99503517 0.34576081 0.84730108
0.02351145 0.62876445 0.35660129
0.74245016 0.82430621 0.58497220
0.73891992 0.39134774 0.22205463
0.40537184 0.49532765 0.89591548
0.11082717 0.88919174 0.51842120
0.16919472 0.75497777 0.90649302
0.73041448 0.61346365 0.26837326
0.22307081 0.26792834 0.11184255
0.90102088 0.98175783 0.40583853
0.99527600 0.89990143 0.91827477
0.33026544 0.49988091 0.33434501
0.39459150 0.00426830 0.08903044
0.40173156 0.88789226 0.48793839
0.09972850 0.14547173 0.76593693
0.83345427 0.48189530 0.32992141
0.66525027 0.23659520 0.40257713
0.86036573 0.85119656 0.49425368
0.86011075 0.73839705 0.59991447
0.11006576 0.39371002 0.49568979
0.26498612 0.33691260 0.91597971
0.39847496 0.76681436 0.35948420
0.39995506 0.83936689 0.75209296
0.98393871 0.38394762 0.39596564
0.91226418 0.50694312 0.90173226
0.58407346 0.89712966 0.50451152
0.86217800 0.77738365 0.98421989
0.33312663 0.33271571 0.49934821
0.39002619 0.39429988 0.99322475
0.15848064 0.85553959 0.01639195
0.40193639 0.73753194 0.14521387
0.88347156 0.46654419 0.46127440
0.90429209 0.83846795 0.75359970
0.76892577 0.93133805 0.33970309
0.66468021 0.99747656 0.84007508
0.35739819 0.23458313 0.61133712
0.48661737 0.36318423 0.85650495
0.46175765 0.87947600 0.30186594
0.51058339 0.87333268 0.14199036
0.89381453 0.34855498 0.27375118
0.89942369 0.99910399 0.10042122
0.98361731 0.85241196 0.36613764
0.89307955 0.15217500 0.24179642
0.99734153 0.35176383 0.14392683
0.38311571 0.26779080 0.85829960
0.31441192 0.90749452 0.27590335
0.49079004 0.90268711 0.90625968
0.75459462 0.35214618 0.40501113
0.74061952 0.40643171 0.64579254
0.88599589 0.85514172 0.26604705
0.58851570 0.84238355 0.76167903
0.37833468 0.62832456 0.61981036
0.12819702 0.62571123 0.87522150
0.62684917 0.87827561 0.63312558
0.86866007 0.37961885 0.88258178
0.36069693 0.13033046 0.11817468
0.37185696 0.37100400 0.37140177
0.63558022 0.62535133 0.37001854
0.12819881 0.37456064 0.13582680
0.13131716 0.37993285 0.62966967
0.63099286 0.62664477 0.87708480
0.86942554 0.87090047 0.87790981
0.13631105 0.12434858 0.38416462
0.62960369 0.12619212 0.87926693
0.63519507 0.37710776 0.12600338
0.86963363 0.12712398 0.62623706
0.36500934 0.87482701 0.87601605
0.99465939 0.00936788 0.00173111
0.00123277 0.98481095 0.50770329
0.99410200 0.50629809 0.00877603
0.00931468 0.49419224 0.49551867
0.50451046 0.99403747 0.00694994
0.49471774 0.00053822 0.49964771
0.48952778 0.50555986 0.00468861
0.51137096 0.49667472 0.50622672
0.99206241 0.24792865 0.24900400
0.99338388 0.24251921 0.75643351
0.99242412 0.75357658 0.25523082
0.00070340 0.74514394 0.73823064
0.49941776 0.24181677 0.25810926
0.48819898 0.25824041 0.75568707
0.49854071 0.75981910 0.24507559
0.49680055 0.74958228 0.74963968
0.24266143 0.99698552 0.25129499
0.23344645 0.00209964 0.75784400
0.24810882 0.50685986 0.25237435
0.25877584 0.49360345 0.75311607
0.74229634 0.00304379 0.24983892
0.74510456 0.00274520 0.75272961
0.75045968 0.50198191 0.24731251
0.74024695 0.49044040 0.73080797
0.23873743 0.25586280 0.99675702
0.26905950 0.23659709 0.51715858
0.23188797 0.74827461 0.01000719
0.25537342 0.74723700 0.49701123
0.74678350 0.24663360 0.00525088
0.75411051 0.25817774 0.48353018
0.75021808 0.74831832 0.00091325
0.78122886 0.74805843 0.50282465
0.44374356 0.18905937 0.45432092
0.43548128 0.20401047 0.94474621
0.44907871 0.68988140 0.43583566
0.43184514 0.69636086 0.95023907
0.93763670 0.19025403 0.45499775
0.93379253 0.19046465 0.94078516
0.94836886 0.68932906 0.43688559
0.94538302 0.69564815 0.95031991
0.18612437 0.05331187 0.05989005
0.19690355 0.05176700 0.56976057
0.19637802 0.55978436 0.06497513
0.19493443 0.55849091 0.55480760
0.69618588 0.04931688 0.06588275
0.69667919 0.05660080 0.56000381
0.69627188 0.57021523 0.05811797
0.69368499 0.56487828 0.55155177
0.30888165 0.05177494 0.44957760
0.29805204 0.05970934 0.93998865
0.31421322 0.55796329 0.43947583
0.30600114 0.55582747 0.94330396
0.80506889 0.04827188 0.43900890
0.80412087 0.05440044 0.94610329
0.80893443 0.55469705 0.43360186
0.81166761 0.56346704 0.94049686
0.05541941 0.18844286 0.05581187
0.05837435 0.19360658 0.56539386
0.06334709 0.69305219 0.06883600
0.06683789 0.68445924 0.54816458
0.55817172 0.19339696 0.04988852
0.56359241 0.19856174 0.56589285
0.55089221 0.69710568 0.06514534
0.57433462 0.68949943 0.54388386
0.12194558 0.12044653 0.87450704
0.14154382 0.63324003 0.37205706
0.62907952 0.12581366 0.37969565
0.43996930 0.44422602 0.19048858
0.44213244 0.45336237 0.69843108
0.43556235 0.94925758 0.19765454
0.43674472 0.94671693 0.70284051
0.93428587 0.43794654 0.19987641
0.92842597 0.44191158 0.70419085
0.94256932 0.93775302 0.19627817
0.93190514 0.94027301 0.69303201
0.19959240 0.30536842 0.31977049
0.19119246 0.30971093 0.81625012
0.20376229 0.81465324 0.31057309
0.19025649 0.81513663 0.80242193
0.69442622 0.30901034 0.30576347
0.69547026 0.32010339 0.81473394
0.69763363 0.81937896 0.30477396
0.69357336 0.80683137 0.80819776
0.30391435 0.30409570 0.19434742
0.30410692 0.30802235 0.69550663
0.31797243 0.81365604 0.19176089
0.30525122 0.80778979 0.68633412
0.81233357 0.30037522 0.19413220
0.80000471 0.31059633 0.68669091
0.81015828 0.81603508 0.18464235
0.80653890 0.80569430 0.68952399
0.05628880 0.43400123 0.31325800
0.05057872 0.44653090 0.81530254
0.05595617 0.93929148 0.31381454
0.04642557 0.93600453 0.81107042
0.55962227 0.43609427 0.30805584
0.56027833 0.44837940 0.81580942
0.55398726 0.95304954 0.30748930
0.55769297 0.94609717 0.81462913
0.13384721 0.88106462 0.12973085
0.12988643 0.87210790 0.63298153
0.62992284 0.37591637 0.62873061
0.62999623 0.88291073 0.12891447
0.18787508 0.19298833 0.19770030
0.18696900 0.19581344 0.69487984
0.19783391 0.69747335 0.19756628
0.19095357 0.69042131 0.69148995
0.69129974 0.19021597 0.19138595
0.68137574 0.20107182 0.69690288
0.69475662 0.69995953 0.18981939
0.68515249 0.69601636 0.68733137
0.43652476 0.06858385 0.30831984
0.44280325 0.06372083 0.81611703
0.44262288 0.54990737 0.31356521
0.44567167 0.56769747 0.81087002
0.93894107 0.05553861 0.31075854
0.93207235 0.05258176 0.81300657
0.93935125 0.55032497 0.31649121
0.93929502 0.56948658 0.80698881
0.05742964 0.05519016 0.19526023
0.05050817 0.05469813 0.69741935
0.05737791 0.55433111 0.20467239
0.05246786 0.54535464 0.68599347
0.55048952 0.06934047 0.18926785
0.55636923 0.06162245 0.69617300
0.56056884 0.55685730 0.19806524
0.56545620 0.56272603 0.69775106
0.30608452 0.18366053 0.31309752
0.30391474 0.18992790 0.81055504
0.31535091 0.69532311 0.30887120
0.30061723 0.69370329 0.80981813
0.80290516 0.18467854 0.31213716
0.80111743 0.19769346 0.80931227
0.80860008 0.69821115 0.30394692
0.80463302 0.68615925 0.80337877
0.37396941 0.12003593 0.63156026
0.37523227 0.62638875 0.12951648
0.87191305 0.11072282 0.13396753
0.87630748 0.62759573 0.12968252
0.87287179 0.62485242 0.61846688
0.19190958 0.44810056 0.43089710
0.19350802 0.43968042 0.94841272
0.19375441 0.93849211 0.44752817
0.17899014 0.94299022 0.93813888
0.68858383 0.44519123 0.43955282
0.69791463 0.44819585 0.94543644
0.68739026 0.93527778 0.44347610
0.68996960 0.93699365 0.94379405
0.44337004 0.31235956 0.06280444
0.44437365 0.31245269 0.56155254
0.43503323 0.81682882 0.06302518
0.45994860 0.80359287 0.55174506
0.93294608 0.29777348 0.06063272
0.94810431 0.31769961 0.56436701
0.94906447 0.81244418 0.06126302
0.95145587 0.80305155 0.55934807
0.05657079 0.29941187 0.44139763
0.05342008 0.30472696 0.94378344
0.06440625 0.80606905 0.44092339
0.06580001 0.80696387 0.94805573
0.56052896 0.30604464 0.44269683
0.55833007 0.31919935 0.94406324
0.56844895 0.80647256 0.42851048
0.55346841 0.80521174 0.94653432
0.30745701 0.44090791 0.06677077
0.30455203 0.44066567 0.55214749
0.30135865 0.94021014 0.05093823
0.30905820 0.93030023 0.56356340
0.80851418 0.44953578 0.06373433
0.80846433 0.44551977 0.55517139
0.80838170 0.92922726 0.05708556
0.80317908 0.93430026 0.56142054
0.36910368 0.38414265 0.87760969
0.37304036 0.87823796 0.37568551
0.86834023 0.37478438 0.38628465
0.86654713 0.87189794 0.37906405
0.24175134 0.99868956 0.99375410
0.25293112 0.99397033 0.50973449
0.25308441 0.49901710 0.00818020
0.24959115 0.50074860 0.49198109
0.75092241 0.99121102 0.00319909
0.74788713 0.99384838 0.50206256
0.75260256 0.50916788 0.00463434
0.74928490 0.50319645 0.49520029
0.24954413 0.24459135 0.25554100
0.24678915 0.25220317 0.75589243
0.25980900 0.75754963 0.24997215
0.24884512 0.75081436 0.74774724
0.75109214 0.24485465 0.25066617
0.74309177 0.25892385 0.75412552
0.75410354 0.75882623 0.24530677
0.74707921 0.74511587 0.74819549
0.00017021 0.99849959 0.25479321
0.99017289 0.99608713 0.75317517
0.99772830 0.49336813 0.25609467
0.99305021 0.50294929 0.75275776
0.49519888 0.01162781 0.25012920
0.49868696 0.00466196 0.75684995
0.50161935 0.49666441 0.25058473
0.50433132 0.50709560 0.75580051
0.99549142 0.24489268 0.00034291
0.99754698 0.25129338 0.50770652
0.00809519 0.75022716 0.00777552
0.00525423 0.74629403 0.49658229
0.50170814 0.25858436 0.99895816
0.50240395 0.25287811 0.50553934
0.49092258 0.75439737 0.00761484
0.51354459 0.74747029 0.48761673
Direct configuration=      2
0.09457970 0.34355005 0.26092984
0.15671613 0.22584660 0.91075002
0.14756334 0.72521078 0.45762294
0.23328670 0.48519902 0.64039804
0.65066269 0.91911321 0.24284172
0.53862483 0.13937454 0.78167029
0.89299261 0.61129820 0.01773624
0.82934356 0.41000903 0.75936846
0.21666784 0.22636301 0.39477917
0.12952715 0.02368439 0.80303328
0.22241569 0.61486417 0.28220781
0.22551993 0.60386711 0.77234921
0.35164136 0.24475358 0.41327276
0.88324747 0.10767662 0.01285398
0.52197986 0.39789732 0.61013916
0.54906747 0.76402012 0.62990375
0.34273142 0.05346748 0.23072823
0.00879587 0.11830667 0.88152910
0.15478875 0.51316411 0.33602745
0.09648605 0.50483449 0.91211231
0.60169424 0.01330879 0.39062169
0.52315314 0.11991643 0.96200167
0.68619074 0.66709772 0.48647257
0.50105272 0.66340852 0.85378135
0.00405571 0.15531925 0.36022552
0.24602623 0.14372008 0.01902888
0.10713784 0.59108672 0.47706784
0.31970457 0.74612367 0.92204782
0.61385062 0.14098960 0.26365203
0.66360713 0.00859405 0.66500892
0.50012714 0.39696914 0.40967438
0.74193683 0.83014535 0.91789790
0.23581590 0.01600488 0.36023551
0.11429583 0.05613993 0.96209416
0.26741433 0.65887031 0.09356741
0.14982927 0.98833228 0.65791226
0.73134417 0.08182507 0.33885389
0.82793820 0.24932769 0.91662657
0.84642782 0.75929120 0.39958069
0.63703146 0.71649911 0.98419743
0.09361919 0.99702965 0.41180237
0.15850802 0.33960811 0.00535008
0.12364141 0.72294987 0.29590551
0.89656967 0.64164214 0.24239330
0.51340757 0.15498388 0.36406803
0.89532285 0.14670485 0.75171314
0.66404438 0.51081171 0.16198177
0.75277549 0.49590662 0.85238833
0.16576574 0.42083460 0.76291111
0.25264829 0.66262980 0.41448022
0.00315048 0.66197439 0.85035809
0.23862817 0.82814068 0.58202614
0.75639036 0.66811157 0.91569829
0.84613708 0.34094895 0.50241901
0.51128895 0.59011012 0.40133514
0.74014674 0.89090735 0.74212180
0.35367279 0.23913363 0.02197045
0.04651409 0.27987132 0.63719754
0.02417705 0.85042191 0.14959707
0.35173769 0.99290594 0.77500563
0.66336244 0.26131796 0.91869707
0.59229725 0.27027699 0.66247542
0.60192200 0.76838278 0.14936945
0.24890124 0.66681429 0.58280670
0.16272877 0.50552334 0.17122940
0.22357626 0.27455381 0.60538009
0.30374497 0.81976228 0.06088760
0.26943239 0.83576948 0.41653842
0.67756600 0.58899192 0.74934251
0.65451120 0.40501287 0.74450635
0.73181480 0.82541168 0.08626256
0.70561969 0.81139031 0.43391018
0.00227647 0.38702328 0.04645854
0.84807191 0.25623987 0.39995436
0.09010166 0.98124290 0.10210887
0.01283863 0.89500947 0.61558678
0.50296255 0.40722972 0.10194887
0.64872596 0.49172137 0.63827736
0.60580898 0.88529430 0.01476548
0.22642973 0.89348482 0.70753211
0.25712448 0.39461726 0.26343859
0.01954164 0.45980009 0.62465637
0.15625906 0.76607876 0.10881070
0.24050744 0.92264564 0.84211077
0.40715105 0.33462654 0.24820924
0.65534260 0.35019539 0.51115165
0.59664075 0.99423742 0.10778386
0.60223795 0.74702315 0.32804697
0.59635187 0.34070349 0.24785680
0.27651408 0.46944500 0.86249637
0.15636777 0.90829016 0.24206287
0.09183909 0.84951196 0.74327705
0.66679701 0.49178565 0.32700598
0.72349896 0.27360544 0.60231995
0.73108039 0.95010217 0.14570857
0.72595113 0.11490884 0.76824480
0.66330770 0.25014103 0.08328083
0.48609740 0.11769297 0.60694524
0.59512728 0.50274648 0.91917332
0.36404294 0.54031101 0.72354677
0.82877538 0.22511379 0.09390918
0.61144670 0.11667264 0.49147033
0.83990887 0.52353285 0.16344406
0.76087536 0.64649144 0.61157216
0.40154292 0.99093373 0.39154358
0.26428308 0.09268872 0.66874216
0.38753912 0.60423317 0.01566584
0.51087439 0.60032377 0.59863074
0.75638316 0.08903184 0.16759993
0.99937632 0.09480967 0.59199012
0.76661986 0.66483699 0.08978344
0.98728174 0.61959414 0.61706266
0.48863570 0.16261837 0.14307817
0.38909807 0.01061488 0.60880694
0.39341548 0.63055012 0.24103890
0.37013936 0.72618886 0.52001581
0.98657500 0.11203621 0.12009759
0.89876617 0.25298378 0.64741015
0.89440891 0.74355071 0.13957910
0.88795427 0.64540786 0.73267642
0.22671677 0.95628326 0.13994110
0.39458151 0.15113534 0.73695524
0.15742340 0.65406755 0.00125294
0.34329232 0.40281635 0.75867069
0.76036347 0.36113735 0.00338083
0.82501816 0.00107747 0.66444827
0.99086052 0.60808993 0.11974379
0.85512522 0.64386959 0.50364897
0.23497738 0.09460714 0.84065279
0.17374836 0.16098585 0.51215399
0.48703507 0.60033806 0.11390172
0.38497273 0.52611763 0.52734215
0.72218015 0.13543673 0.98416785
0.78289219 0.15126091 0.50728461
0.82619573 0.99665817 0.83702064
0.83844454 0.52056128 0.65647697
0.17603542 0.08899690 0.24204296
0.33760234 0.14523135 0.51891645
0.32886773 0.51647556 0.16187326
0.10580504 0.75658252 0.63869382
0.85562729 0.02150079 0.23389379
0.99299319 0.34692724 0.85020941
0.02206447 0.63128121 0.35682286
0.74232593 0.82489352 0.58742317
0.75614555 0.40397447 0.17978798
0.40680966 0.49430588 0.89393863
0.11134795 0.89003169 0.51823845
0.16841128 0.75561138 0.90505376
0.73112815 0.61263160 0.26462139
0.22805773 0.27305883 0.11056494
0.90035803 0.98333526 0.40567743
0.99315884 0.89905612 0.91650256
0.33060528 0.50165595 0.33492140
0.37770152 0.02986493 0.02968217
0.40224473 0.88737874 0.48760558
0.09921758 0.15933830 0.76203342
0.83369142 0.48331129 0.32514672
0.66660486 0.23143353 0.40676826
0.85526683 0.85270291 0.49182174
0.86069494 0.74037244 0.60135484
0.10265763 0.39678294 0.49599801
0.26594966 0.33408915 0.90998309
0.39924885 0.76683627 0.35856591
0.39962760 0.83913741 0.75143102
0.98512171 0.37988396 0.39165499
0.90876343 0.50257021 0.91032621
0.58241190 0.89845396 0.50537177
0.86052988 0.77846636 0.98407726
0.27144191 0.35566849 0.47361833
0.38769564 0.39422483 0.99111359
0.15667731 0.85417780 0.01531966
0.40208966 0.73582154 0.14303946
0.88534460 0.47079137 0.45562938
0.90453919 0.83761695 0.75324135
0.76776277 0.92415359 0.33990819
0.66227884 0.99687312 0.83768522
0.36784358 0.24082029 0.61000405
0.48760416 0.36337788 0.85326813
0.45604344 0.88109737 0.29547716
0.50639484 0.87791898 0.13859345
0.89560637 0.35332436 0.27014021
0.89185348 0.99558466 0.10001503
0.98402177 0.85256856 0.36491038
0.89117174 0.16491474 0.23110594
0.04393039 0.25944260 0.13665720
0.38641802 0.26655907 0.85454275
0.30845803 0.90122922 0.27865520
0.49086981 0.90131382 0.90285514
0.75642774 0.35538771 0.39952066
0.74663411 0.40653850 0.64584455
0.88629253 0.85779190 0.26555792
0.58896183 0.84008036 0.76025500
0.37907870 0.62752099 0.61807057
0.12941051 0.62781948 0.87193121
0.62659581 0.87833950 0.63278903
0.86698657 0.37866140 0.88514271
0.35996145 0.13176443 0.11553081
0.37099224 0.37411354 0.37421574
0.63592456 0.62462191 0.36716890
0.11809796 0.37503163 0.12907371
0.13327341 0.38052707 0.62807577
0.63002574 0.62560167 0.87647818
0.86772720 0.87176327 0.87656924
0.13204816 0.11876167 0.38001981
0.63163989 0.12707511 0.87720109
0.63241213 0.37747114 0.12375371
0.87034888 0.12474719 0.62211815
0.36277020 0.87832702 0.87448245
0.99137999 0.00685654 0.00381729
0.00246041 0.98654808 0.50782546
0.99980057 0.51474506 0.00784108
0.00898887 0.49792014 0.49720700
0.50482740 0.99259734 0.00495141
0.49589275 0.00196827 0.50026731
0.48853258 0.50376646 0.00428804
0.51225727 0.49853720 0.50473541
0.99376915 0.24932800 0.26096371
0.99092910 0.24497456 0.75378614
0.99252258 0.75564050 0.25400663
0.00102453 0.74463290 0.73833580
0.50540349 0.24247070 0.25323100
0.48670390 0.25769654 0.75255450
0.49577394 0.75929668 0.24476951
0.49584023 0.74883609 0.74921775
0.24326200 0.99357544 0.24928204
0.23543640 0.00317970 0.75307137
0.24660080 0.50728704 0.25352025
0.26052367 0.49255193 0.75148123
0.74343613 0.99995978 0.24976456
0.74451462 0.00333993 0.75182001
0.74986640 0.50105328 0.24331202
0.74377152 0.48931341 0.73205059
0.23984337 0.25669239 0.99512029
0.26557889 0.24006161 0.50128351
0.23129176 0.74836757 0.00855766
0.25635564 0.74788936 0.49684896
0.74950981 0.24543375 0.00330288
0.75384238 0.26647761 0.48666682
0.74873361 0.74793817 0.00088328
0.77724775 0.74751821 0.50453739
0.44693206 0.18627761 0.45736309
0.43839281 0.20213139 0.94168920
0.45246157 0.69091072 0.43439370
0.43067319 0.69558528 0.94851954
0.93754039 0.19027947 0.45204335
0.93402882 0.18994604 0.94104054
0.94643352 0.69357923 0.43612958
0.94443465 0.69747990 0.94951791
0.18324282 0.05088986 0.06090239
0.19764612 0.05294843 0.56633220
0.19505082 0.55902198 0.06311312
0.19171303 0.56093822 0.55451173
0.69454626 0.04825474 0.06494488
0.69586409 0.06091512 0.55687184
0.69207089 0.57131631 0.05987547
0.69597380 0.56426838 0.55296884
0.30937396 0.05205363 0.44699387
0.29589263 0.06031598 0.94344767
0.31121489 0.56036413 0.43942779
0.30632254 0.55502120 0.94235245
0.80378906 0.04957253 0.43811947
0.80173912 0.05231392 0.94463370
0.80762213 0.55685853 0.43186132
0.80953111 0.56319031 0.94431653
0.05883031 0.17933573 0.05040631
0.06239017 0.19245725 0.56020235
0.06287398 0.69486295 0.06779479
0.06487123 0.68795984 0.54878416
0.55819163 0.19505800 0.04868074
0.56640670 0.19676383 0.56761798
0.54872530 0.69640209 0.06469347
0.57640702 0.68780277 0.54413637
0.12264011 0.12105537 0.86783488
0.14038299 0.63474640 0.37356364
0.62631561 0.12398442 0.37758907
0.43613151 0.43993205 0.19520382
0.44668363 0.44941079 0.69550789
0.43230083 0.95311464 0.19800951
0.43461170 0.94487738 0.69879997
0.93598799 0.44359702 0.19796010
0.93280421 0.44392444 0.70283928
0.94336117 0.94051820 0.19650568
0.93222557 0.94080786 0.69290842
0.19314982 0.31072642 0.31688752
0.19124141 0.30608836 0.81312015
0.20448250 0.81408950 0.30969883
0.19049720 0.81614516 0.80128248
0.69376155 0.30445128 0.30822852
0.69801180 0.31794718 0.81436406
0.69620918 0.81921199 0.30624599
0.69280316 0.80679235 0.80914093
0.30283700 0.30804564 0.19617540
0.30389519 0.30719657 0.69176873
0.31775512 0.81201757 0.19061820
0.30541870 0.80902213 0.68506390
0.81502621 0.29824417 0.19480878
0.80633876 0.31228081 0.69020194
0.80815498 0.81863259 0.18573240
0.80612405 0.80622724 0.69081796
0.05453618 0.44120976 0.31522793
0.05256382 0.44550785 0.81623996
0.05747295 0.93845582 0.31281155
0.04713627 0.93725754 0.81192142
0.55767284 0.43609006 0.31033114
0.56329110 0.44671075 0.81424979
0.55227947 0.94880877 0.30616133
0.55617395 0.94380744 0.81049405
0.13399457 0.87925289 0.12878429
0.12981592 0.87276369 0.63233859
0.63743669 0.37244281 0.62684344
0.62763567 0.88191586 0.12879655
0.18398772 0.19901316 0.19418609
0.19011423 0.19335945 0.69096993
0.19734413 0.69609824 0.19724981
0.19199335 0.69086563 0.69068564
0.69348504 0.19040500 0.18906709
0.68854755 0.20077186 0.69461497
0.69345373 0.70203872 0.18891168
0.68563938 0.69543298 0.68901395
0.43899555 0.07007407 0.30837714
0.44516384 0.06440280 0.81104386
0.44093566 0.55072604 0.31406901
0.44696704 0.56473947 0.80756700
0.94219293 0.05780650 0.31073442
0.93278628 0.05352161 0.81285235
0.93706165 0.55555792 0.31709293
0.93776006 0.56607303 0.81257764
0.06102728 0.05568566 0.19576311
0.05300399 0.05441837 0.69906252
0.05673185 0.56072665 0.20654896
0.05402051 0.55218668 0.69330657
0.55287815 0.06737724 0.18974710
0.55592250 0.05982358 0.69293064
0.55630418 0.55423851 0.19727854
0.56828891 0.56040356 0.69597667
0.29851701 0.18719226 0.31362331
0.30552209 0.18944582 0.80941308
0.31536616 0.69441690 0.30841013
0.30202653 0.69540473 0.80852448
0.80405106 0.18282128 0.31075872
0.80391470 0.19501943 0.80920447
0.80753659 0.69868903 0.30311224
0.80515082 0.68774367 0.80577666
0.37216046 0.12348226 0.62834365
0.37404225 0.62484586 0.12848687
0.87013103 0.10833366 0.13110597
0.87577998 0.63139073 0.12932675
0.87305640 0.62723171 0.61992647
0.19306047 0.44496161 0.43393539
0.19367664 0.43986666 0.94542698
0.19523567 0.93698974 0.44661137
0.17549661 0.94576289 0.93867472
0.68913670 0.44468556 0.44132918
0.69681168 0.44777473 0.94855396
0.68485638 0.93667365 0.44326222
0.68661531 0.93626256 0.94213243
0.44170364 0.31205132 0.06014307
0.44938291 0.31453790 0.55938751
0.43348369 0.81626084 0.06100046
0.46315482 0.80362187 0.55087885
0.94094105 0.28956406 0.07203070
0.95372677 0.31357678 0.56246730
0.94863051 0.81433114 0.06006580
0.94906469 0.80692623 0.55824240
0.06117588 0.30027982 0.43807070
0.05030707 0.30805902 0.95092045
0.06405087 0.80842025 0.44125004
0.06513366 0.80795959 0.94635751
0.56499128 0.30181952 0.44270871
0.55825314 0.31999856 0.94206605
0.57427329 0.80541318 0.42969141
0.55272269 0.80401684 0.94550022
0.30566659 0.43983801 0.06582030
0.30373280 0.44322406 0.55236202
0.30302666 0.93992016 0.05018762
0.31013606 0.93173292 0.56265332
0.80867188 0.45117749 0.06605107
0.81294909 0.44795542 0.55370956
0.80474244 0.92617102 0.05472410
0.80076572 0.93588867 0.56090528
0.36982937 0.38301816 0.87501116
0.37292742 0.87809303 0.37592215
0.87011530 0.37652375 0.38422538
0.87004719 0.87420897 0.37784731
0.23998669 0.99637569 0.99652612
0.25416835 0.99425066 0.50753451
0.25256230 0.49854891 0.00673127
0.24834436 0.50355915 0.49390084
0.74787396 0.98959978 0.00178301
0.74619720 0.99511826 0.50034373
0.74992828 0.50916330 0.00906982
0.75074341 0.50335176 0.49458536
0.24581910 0.24867540 0.25536341
0.24803565 0.24968451 0.75213363
0.25986754 0.75597713 0.24906589
0.24950675 0.75182584 0.74666992
0.75094950 0.24477095 0.25145451
0.74728487 0.25763569 0.75374835
0.75268655 0.75977926 0.24570222
0.74705473 0.74516911 0.74964086
0.00298139 0.99925631 0.25456682
0.99023281 0.99618196 0.75342997
0.99545894 0.49891808 0.25596626
0.99421397 0.50383550 0.75613632
0.49552544 0.01101833 0.25030189
0.49783212 0.00225580 0.75180643
0.49875223 0.49465341 0.25230038
0.50710718 0.50436686 0.75344682
0.99511411 0.24050291 0.00356410
0.00219027 0.24902844 0.50034875
0.00744263 0.75168129 0.00674166
0.00323658 0.74962552 0.49634459
0.50076686 0.26043199 0.99640488
0.50571538 0.25180369 0.50714253
0.48965957 0.75347882 0.00613489
0.51695434 0.74643148 0.48799052
Direct configuration=      3
0.09579679 0.33630771 0.26518113
0.15631379 0.22823513 0.90653158
0.14648098 0.72331393 0.45503494
0.23793152 0.48251290 0.63932483
0.64377898 0.91046163 0.24161892
0.53854298 0.13639099 0.78000381
0.88959224 0.60885132 0.01798033
0.83143812 0.41492621 0.75546856
0.23761994 0.22309507 0.40004645
0.13633543 0.00806822 0.83655149
0.21985073 0.61213019 0.27926161
0.16895977 0.58440596 0.74449913
0.40169568 0.23352476 0.35284687
0.88296573 0.10638440 0.01102489
0.51828534 0.39494436 0.61244911
0.54490616 0.76629010 0.62735418
0.34416193 0.04606492 0.22270709
0.00827935 0.12995399 0.86817961
0.15345146 0.51015425 0.33819637
0.08992030 0.50083832 0.92179443
0.64315742 0.01090076 0.34920243
0.52746265 0.11705884 0.96450910
0.68307162 0.66587526 0.48789557
0.49951707 0.65931520 0.85059119
0.00154579 0.15560413 0.36070546
0.24258658 0.13939165 0.99617812
0.10592301 0.59016147 0.47724391
0.31406072 0.72215336 0.91566542
0.60468124 0.14926323 0.26768729
0.66038105 0.00065158 0.66648826
0.49671591 0.39695997 0.41123846
0.73914790 0.83046430 0.91871680
0.24996867 0.05796898 0.34594607
0.09603775 0.09058991 0.97917819
0.26902342 0.65894155 0.09066083
0.14268833 0.98922052 0.66453117
0.73971206 0.09297172 0.34072346
0.82877049 0.24962308 0.91542128
0.84130007 0.75763227 0.39777482
0.63473366 0.71503008 0.98490848
0.09896336 0.99868039 0.40681228
0.16170812 0.33835825 0.00851731
0.12141724 0.72112558 0.29597114
0.89300665 0.63977305 0.24163312
0.51688169 0.10741012 0.39459233
0.89267702 0.14465979 0.75173738
0.66579385 0.50984944 0.15978155
0.74922571 0.49674114 0.85110392
0.16754069 0.41431716 0.76258870
0.25095222 0.65646256 0.41396995
0.00273788 0.66263469 0.84982755
0.23378622 0.81961783 0.57974799
0.75438428 0.66934608 0.91495286
0.84345178 0.33946710 0.50217122
0.50853545 0.58920975 0.40290227
0.75082792 0.88995761 0.75142253
0.35554875 0.23623509 0.01320766
0.04343860 0.27747269 0.63699622
0.04856113 0.80551126 0.13438946
0.34908408 0.99788221 0.77085628
0.66509893 0.26182037 0.91765725
0.58894956 0.26876725 0.65889010
0.59666296 0.76691114 0.14651828
0.24701033 0.66150689 0.57890753
0.15745536 0.50256397 0.17141273
0.22033574 0.27404629 0.61117442
0.32263007 0.83101301 0.00283052
0.26712939 0.83449274 0.41874019
0.67124833 0.58761067 0.74776179
0.65011143 0.40586129 0.74419239