Li192 P32 S160 I32
1.0
20.433000 0.000000 0.000000
0.000000 20.433000 0.000000
0.000000 0.000000 20.433000
Li I S P
192 32 160 32
Direct configuration=      1
0.09462714 0.26362990 0.28807990
0.11681935 0.23225555 0.85907692
0.15850817 0.73240498 0.39053178
0.17483092 0.50585215 0.66043790
0.63150820 0.95843520 0.21276964
0.52537230 0.14913684 0.84089926
0.77052905 0.65335381 0.03649467
0.85505233 0.42548099 0.73760454
0.29166542 0.17231514 0.43878625
0.10040220 0.01522808 0.90209706
0.25995290 0.41679209 0.35327204
0.26851981 0.58910368 0.78698421
0.66693303 0.22839104 0.38737669
0.90394432 0.08944834 0.03489057
0.50145695 0.37726587 0.59415294
0.52927888 0.86845923 0.72460520
0.24738633 0.01250386 0.13095150
0.01266920 0.14749547 0.82136688
0.22343782 0.56755250 0.34619324
0.11083912 0.48009093 0.03566612
0.61440893 0.01538892 0.36056724
0.58425480 0.09742779 0.98493897
0.62591963 0.61397629 0.50665217
0.48165079 0.62053219 0.88787600
0.00455598 0.11887818 0.39774006
0.16195297 0.18316224 0.02198093
0.10598804 0.53183580 0.45562229
0.23252029 0.84296545 0.91210988
0.62005596 0.13562648 0.25560565
0.67761272 0.01510277 0.66373134
0.50873941 0.55938476 0.38403575
0.75407154 0.75125228 0.88459724
0.18323104 0.09504178 0.24642379
0.05578386 0.13267155 0.96936020
0.25503200 0.56471060 0.16781990
0.10667119 0.86523113 0.72626810
0.74282810 0.09790147 0.34318281
0.85722573 0.25301072 0.94755467
0.79107006 0.78037707 0.38970712
0.59998013 0.67793590 0.75312278
0.11535088 0.00402581 0.43243884
0.18127505 0.33671241 0.00281327
0.09693891 0.65861097 0.27219112
0.95759267 0.63241109 0.19756941
0.50507459 0.13563016 0.36902720
0.83637735 0.01140695 0.84400795
0.76133572 0.52994015 0.16179574
0.75337841 0.57963375 0.83192617
0.24961197 0.38166424 0.75753233
0.17646352 0.65286280 0.48825190
0.11242680 0.65925033 0.75609259
0.15999671 0.99378226 0.66778118
0.62748436 0.72105876 0.98550669
0.73545866 0.29901338 0.60597456
0.56886758 0.65011285 0.25853922
0.74361150 0.88502186 0.72809999
0.35819811 0.18255471 0.01966983
0.07634367 0.21312256 0.65886138
0.14799635 0.87720547 0.01857550
0.29810727 0.99572956 0.84638585
0.68400455 0.26177649 0.90711255
0.59528607 0.35870506 0.72726411
0.62600325 0.80864379 0.21854381
0.38639737 0.72921082 0.65181258
0.14887736 0.50345404 0.23135168
0.19122246 0.27194890 0.60096312
0.33302878 0.83038199 0.99796217
0.35724058 0.84305286 0.49197880
0.63479830 0.51552072 0.75592313
0.73126519 0.40619035 0.83403348
0.72484926 0.76341122 0.11728231
0.66948867 0.74599497 0.60841661
0.88953337 0.49883314 0.89875383
0.88858104 0.26794172 0.35378982
0.08987730 0.00035724 0.11916270
0.03430950 0.89986162 0.59605102
0.59032143 0.41799669 0.98689952
0.61005366 0.47936340 0.58275379
0.66753124 0.84793537 0.00884282
0.35244599 0.00878973 0.64106636
0.25091299 0.39014608 0.20457824
0.05011323 0.41501297 0.52573485
0.15003167 0.76974814 0.11411898
0.26929299 0.91170346 0.69183801
0.39876164 0.24522873 0.34092024
0.64468057 0.34004962 0.51338245
0.63037570 0.97467063 0.05933473
0.65552613 0.75323347 0.42802026
0.52328010 0.34827659 0.24531903
0.16450018 0.47177903 0.84602716
0.00574640 0.85529816 0.15151621
0.09743368 0.76561172 0.61858913
0.73270080 0.53433718 0.36997500
0.60458124 0.24829655 0.63510255
0.73900286 0.91804527 0.17178466
0.76029320 0.11563961 0.75875335
0.66406322 0.23740916 0.08094024
0.46018629 0.21391626 0.63320776
0.59121325 0.57600597 0.01763070
0.32739907 0.50154744 0.66470438
0.82818883 0.23874760 0.09870172
0.60333948 0.11344836 0.46574945
0.90616577 0.50787727 0.11137388
0.79322709 0.58560024 0.70795769
0.28939419 0.94760952 0.34586868
0.26197374 0.09727478 0.63936981
0.38531899 0.60480412 0.01020494
0.50041189 0.59443868 0.58772940
0.76019449 0.08503797 0.17712186
0.00677941 0.09121792 0.60858757
0.82825070 0.58785353 0.24245472
0.98774988 0.61740391 0.62599388
0.45937821 0.19632028 0.13331175
0.50200259 0.07835764 0.62533071
0.36443825 0.63450666 0.23482447
0.34309990 0.69237928 0.47900208
0.98632370 0.13330066 0.14495492
0.87413631 0.21802134 0.70097403
0.89125777 0.73584965 0.13109380
0.90724277 0.64971554 0.75648722
0.15754846 0.91431437 0.25361627
0.36615173 0.11343066 0.73867642
0.24708265 0.65488354 0.96290897
0.39008662 0.34640440 0.76886874
0.73696786 0.35675545 0.07152403
0.83909053 0.01153443 0.67172161
0.90433724 0.61728868 0.02767402
0.85061902 0.64619610 0.51306173
0.22806365 0.13903366 0.90711045
0.16608032 0.16173916 0.48802136
0.45426245 0.68622721 0.13120865
0.37465536 0.50813556 0.51810718
0.75951645 0.14745241 0.01375941
0.82621588 0.19821597 0.46724619
0.95948327 0.85074932 0.83055510
0.87846220 0.53097646 0.60802593
0.32320487 0.06625585 0.25583484
0.41335746 0.08240986 0.51283510
0.36977813 0.50162120 0.12919834
0.25943104 0.76957922 0.61754757
0.86411592 0.95734047 0.29605508
0.00993926 0.36358847 0.68414262
0.99468113 0.62107191 0.39139313
0.78990365 0.72435142 0.61385592
0.70515271 0.40896103 0.21340552
0.32078846 0.48122671 0.85878243
0.17916147 0.84745283 0.51929314
0.13194842 0.72673158 0.96916609
0.64361252 0.51377506 0.24480844
0.27084047 0.23027461 0.13044609
0.86524397 0.98472990 0.45865191
0.90428581 0.91544810 0.00631259
0.36582140 0.48786596 0.27469357
0.40817105 0.98477194 0.07685362
0.45286474 0.95448319 0.38082746
0.17349354 0.09548630 0.75901848
0.87615028 0.47701693 0.40154652
0.74485361 0.16663405 0.56316469
0.84958253 0.83793557 0.50501450
0.92701178 0.75046028 0.64656834
0.17700903 0.30595017 0.42786174
0.28499147 0.27969902 0.88680260
0.41652419 0.76126633 0.38102410
0.39141683 0.76117519 0.81931065
0.98584403 0.37613522 0.35732733
0.96352984 0.38190822 0.98900951
0.69749181 0.86159132 0.52546391
0.84539804 0.77387874 0.98755317
0.31695935 0.33666531 0.49268919
0.35819241 0.36014887 0.99226088
0.24122844 0.87209408 0.16678233
0.27577552 0.71143327 0.11155425
0.85895771 0.33480857 0.48724787
0.00540109 0.60771629 0.90273959
0.75056488 0.90846987 0.31803905
0.66996558 0.98546958 0.84146627
0.34550310 0.21762160 0.57502666
0.45332819 0.43624361 0.88384481
0.37408704 0.87327691 0.25961200
0.52263581 0.88029097 0.13264055
0.85148179 0.39040096 0.26714197
0.85088156 0.01471818 0.17667751
0.96534244 0.86195585 0.40370284
0.87214536 0.15248826 0.23202181
0.00208472 0.33052170 0.14948473
0.46155998 0.28844517 0.87498350
0.25430827 0.81780697 0.39020297
0.49620058 0.89244315 0.90209696
0.74829106 0.37983790 0.37719828
0.74048551 0.44123049 0.66012936
0.90065127 0.77656594 0.33421051
0.52234436 0.87456176 0.53519236
0.36381109 0.61448075 0.61664135
0.13741327 0.61201879 0.88909225
0.62472131 0.87044888 0.63094522
0.87979117 0.37780341 0.87679787
0.36237863 0.10949181 0.13965795
0.39140807 0.38720911 0.38584379
0.65374719 0.63443672 0.37557322
0.11136321 0.38662044 0.12303503
0.13184996 0.37507746 0.63632426
0.61954621 0.62813168 0.87350460
0.84040042 0.88086460 0.89091501
0.12870697 0.13810747 0.37015509
0.66241914 0.12939959 0.88674146
0.61871183 0.37797792 0.12020875
0.86249311 0.14132672 0.60687823
0.35776272 0.87082612 0.87793886
0.00345214 0.01482664 0.02925524
0.01097598 0.00342418 0.49109338
0.99815829 0.51470647 0.99190011
0.98105497 0.51487551 0.48299220
0.50674627 0.98375773 0.99553524
0.52341774 0.00073874 0.48278453
0.48246714 0.50086680 0.99559670
0.49764287 0.48126197 0.49865034
0.97130792 0.24629875 0.24413752
0.00127218 0.25600513 0.75952673
0.98909442 0.74532024 0.24533903
0.00738814 0.75113427 0.74614690
0.48952753 0.22994320 0.25507974
0.49960740 0.25294442 0.75983665
0.49418456 0.75060351 0.24823314
0.49542172 0.74648937 0.75111642
0.25025276 0.98327772 0.24282885
0.26775471 0.02118562 0.72886641
0.25304531 0.49180849 0.25745132
0.24779069 0.49014144 0.75494315
0.75467825 0.00667684 0.25386998
0.75564752 0.00506178 0.75482998
0.75506658 0.49484262 0.26973765
0.75421031 0.49248802 0.76031098
0.25460574 0.24345007 0.99215928
0.24740981 0.24681418 0.50155800
0.22847937 0.77028467 0.00878011
0.23855194 0.75641831 0.49669930
0.75711700 0.26720413 0.00400878
0.73868015 0.26638342 0.49955376
0.72999448 0.76320120 0.00224841
0.75959469 0.75611371 0.51079705
0.42752028 0.18871368 0.44833208
0.44821538 0.19179432 0.92631763
0.45339582 0.67258698 0.44030396
0.42512838 0.70627921 0.94890084
0.94075574 0.20698622 0.44216717
0.94017484 0.17826504 0.94764507
0.93307743 0.70576547 0.43175572
0.92956455 0.70129842 0.94197718
0.17280999 0.06770264 0.04729519
0.19567140 0.06204830 0.55238559
0.18017311 0.56248436 0.06874405
0.17203096 0.55235445 0.55496460
0.69249895 0.07200758 0.07099583
0.68124830 0.06408643 0.56078997
0.69362143 0.58085320 0.05350469
0.70724534 0.54166925 0.58275679
0.31999094 0.05453550 0.43615192
0.30215191 0.06941906 0.95103962
0.29231628 0.55082284 0.44643380
0.29726486 0.54949545 0.94909017
0.79384199 0.07450944 0.44708047
0.81631841 0.05976385 0.95250584
0.81610247 0.55881856 0.45568365
0.80556615 0.57267045 0.94735327
0.05489195 0.18734386 0.07001470
0.07422462 0.18852628 0.55235664
0.05098992 0.68422665 0.04247807
0.05406627 0.68587459 0.54327540
0.55242192 0.18473586 0.05721309
0.54771734 0.17930525 0.55455609
0.54046792 0.67916581 0.05913465
0.56075554 0.69040830 0.56174062
0.11787235 0.12363795 0.86492153
0.12551993 0.61786176 0.37585381
0.62549316 0.12682609 0.36198788
0.45350322 0.44007416 0.19311630
0.44078141 0.43056024 0.68255991
0.43035188 0.93938368 0.18414022
0.46361743 0.95933587 0.68184512
0.94340552 0.43502200 0.18952886
0.94251364 0.46266161 0.67945158
0.94962166 0.96306235 0.19402421
0.95910403 0.95296845 0.67632719
0.19568273 0.32136106 0.31115707
0.18041149 0.30235427 0.79925566
0.18657965 0.80075126 0.29562375
0.18315240 0.81556329 0.80766204
0.66704077 0.31276039 0.30188737
0.67979011 0.30895422 0.80840993
0.69118716 0.80153549 0.32154501
0.70376449 0.81592245 0.80088376
0.32695703 0.29700610 0.21658246
0.30788431 0.29737317 0.69160679
0.31839840 0.78226951 0.20083926
0.31374073 0.80148093 0.71429391
0.78620616 0.32019434 0.19009368
0.80403442 0.31779854 0.68752295
0.81058911 0.80525065 0.20584160
0.81543542 0.80517967 0.69245040
0.05686551 0.45094561 0.31263805
0.05181938 0.44673761 0.80048812
0.05394772 0.95425999 0.31906670
0.03994406 0.94344842 0.81202652
0.56571410 0.45547716 0.31218402
0.55234102 0.43443004 0.80477474
0.55189991 0.92832200 0.29876824
0.55778318 0.93622211 0.81253053
0.13029607 0.89029351 0.13705330
0.13770052 0.87888077 0.62847638
0.63629833 0.37036476 0.61683096
0.63579805 0.87666342 0.13016825
0.18453483 0.20007216 0.20809018
0.19540154 0.18753478 0.68167394
0.18662968 0.68456005 0.19365093
0.19175027 0.69287726 0.69635359
0.68157153 0.19518082 0.18694035
0.69153692 0.20052858 0.69323630
0.68385839 0.69647805 0.21078079
0.70549077 0.67892592 0.70194578
0.42845109 0.02853849 0.31806212
0.44937503 0.04999020 0.82199496
0.44601456 0.56358345 0.29588930
0.42663947 0.54816832 0.80760037
0.93619546 0.07154869 0.31756753
0.93166265 0.06664930 0.79512325
0.92956122 0.55771959 0.30515659
0.93814511 0.56023313 0.81386647
0.06346458 0.07337565 0.20722792
0.06745689 0.08489103 0.71280562
0.04890715 0.55430471 0.18900239
0.05292495 0.57542129 0.69982573
0.55978861 0.04830660 0.19738522
0.57909542 0.07281895 0.71580617
0.55881765 0.56814416 0.18653888
0.54691547 0.55970695 0.68904689
0.30814877 0.17775256 0.32163641
0.29671308 0.18426695 0.81854232
0.28699938 0.66907208 0.32720061
0.29624570 0.69349068 0.82804136
0.79867338 0.20591556 0.31007718
0.81043984 0.21394500 0.80059218
0.81489347 0.69065361 0.31888241
0.81123019 0.68775121 0.81739674
0.38117663 0.12392356 0.62649708
0.35124953 0.61256181 0.11385274
0.85264372 0.12932597 0.12908599
0.85327885 0.62287936 0.12110226
0.87297685 0.65178156 0.63902616
0.17109273 0.44310382 0.44714864
0.18921480 0.43760493 0.95135849
0.20666421 0.93711607 0.43754806
0.19022822 0.95768540 0.92485566
0.68754593 0.45065605 0.45570168
0.69579374 0.45745888 0.93950296
0.68907983 0.95586216 0.43592458
0.68475276 0.95451403 0.96056046
0.43647792 0.29126524 0.05703497
0.42692253 0.29517465 0.56139114
0.44862062 0.81170425 0.07375573
0.43069548 0.79091769 0.55249333
0.93436657 0.29562284 0.05335314
0.96094143 0.33673248 0.54327199
0.94638990 0.81262790 0.06051604
0.94970589 0.81106013 0.55485454
0.06861232 0.31171377 0.42833774
0.05885068 0.29139566 0.93856132
0.06143994 0.80980611 0.43806738
0.04796128 0.81659528 0.94322596
0.54997559 0.30501679 0.44659158
0.56123182 0.31024396 0.95458681
0.54121655 0.81069579 0.44153228
0.55270994 0.79874422 0.94645614
0.29692705 0.43754166 0.07558227
0.29133835 0.43569533 0.56517408
0.28360889 0.93774609 0.05737742
0.30880661 0.93930608 0.56384686
0.79966139 0.47066808 0.06981090
0.82404975 0.43087068 0.55784702
0.81191495 0.94755138 0.07034775
0.79748521 0.95601855 0.55624955
0.36567563 0.37563622 0.87256070
0.36470212 0.85941003 0.37796359
0.87790985 0.36835201 0.37098109
0.85238641 0.88316879 0.38516752
0.23782874 0.00783006 0.99646177
0.26275107 0.00668343 0.49790705
0.24121839 0.49467001 0.01437469
0.23431186 0.49339614 0.49977215
0.75105606 0.00462628 0.01711242
0.73771951 0.01403092 0.50336787
0.74787613 0.51800668 0.00343834
0.75769361 0.49522102 0.50875121
0.25648754 0.24671792 0.26607428
0.24698885 0.24047455 0.74836699
0.25063758 0.73415092 0.25781073
0.24350244 0.75114788 0.76668139
0.73219705 0.25722937 0.24802428
0.74363829 0.26269180 0.74510098
0.75829367 0.74787853 0.26313970
0.75669487 0.74526823 0.75247724
0.00360112 0.01267813 0.26038174
0.99692288 0.01178756 0.74599847
0.99387632 0.49750270 0.25088536
0.99819167 0.51064969 0.75054221
0.49023825 0.99095739 0.24739300
0.51163226 0.00756164 0.75668372
0.50853657 0.50625566 0.24505729
0.49164665 0.49428742 0.74603621
0.99773030 0.24025720 0.00268848
0.01216476 0.26286501 0.49876004
0.99901964 0.75225170 0.99855536
0.00247297 0.74789365 0.49033369
0.50345082 0.24311375 0.99515927
0.49009570 0.24568281 0.50263212
0.49240912 0.74886813 0.00685024
0.50453390 0.73707429 0.49719778
Direct configuration=      2
0.11618825 0.23865772 0.27071653
0.10753967 0.25179272 0.87074133
0.13473211 0.74309906 0.41790166
0.15398431 0.51350000 0.68515072
0.62201436 0.96595876 0.22303624
0.53552788 0.15045915 0.82146578
0.77468145 0.64622766 0.05500267
0.84039034 0.41831536 0.75042663
0.32071341 0.16890218 0.44260722
0.10880820 0.01839602 0.92969883
0.24717640 0.43096194 0.34331474
0.22446957 0.60945302 0.76330584
0.64605217 0.23111559 0.38383797
0.89253356 0.10226972 0.02573820
0.49599472 0.36815695 0.58737561
0.53013736 0.88200842 0.72559932
0.26374147 0.02655470 0.14906569
0.01141361 0.13979797 0.83062344
0.22377259 0.60197675 0.32075655
0.08983783 0.49594785 0.03871897
0.60610826 0.98549058 0.38944455
0.60641380 0.07145528 0.99006589
0.65559331 0.61865953 0.49071822
0.47220685 0.61816059 0.87036598
0.00291344 0.11967827 0.38681958
0.17337969 0.15986672 0.01879704
0.11185778 0.54723732 0.45804048
0.24385584 0.83550399 0.91448396
0.61203046 0.13639842 0.25472626
0.65915396 0.00298062 0.69450363
0.52222701 0.54306383 0.37515928
0.75540621 0.78514958 0.89797967
0.15970845 0.06847147 0.26361639
0.05676281 0.12601854 0.97849522
0.26870582 0.56387411 0.14967910
0.10566507 0.88783152 0.75742921
0.73193684 0.07454430 0.33138113
0.83788010 0.27136998 0.96641013
0.77739267 0.79297602 0.39383132
0.59714337 0.66941187 0.74778733
0.12020323 0.99837948 0.40235140
0.16883013 0.33119032 0.00839658
0.10782266 0.64616120 0.26138053
0.96295175 0.63376932 0.21329375
0.51327914 0.11314101 0.35698061
0.83002233 0.01347649 0.84069489
0.77827907 0.52827056 0.13228291
0.73959359 0.58418103 0.84214206
0.22533909 0.40247243 0.71326928
0.20461934 0.65250961 0.45493937
0.09286045 0.67769431 0.74283229
0.16117010 0.98822134 0.65152390
0.64813507 0.70747913 0.99221523
0.74924385 0.31752354 0.59487918
0.59767836 0.66988382 0.22509587
0.70556324 0.87482546 0.73370575
0.34547934 0.19188102 0.95953742
0.09388837 0.24690821 0.68411027
0.14223853 0.87875219 0.02500217
0.28637512 0.98066605 0.84075946
0.65793182 0.27282617 0.90959630
0.58830386 0.34987247 0.73823540
0.60614031 0.82347501 0.23221570
0.36675981 0.73704657 0.63670616
0.14902916 0.48353542 0.21062440
0.18882952 0.26710454 0.56835372
0.33188558 0.83338981 0.01254533
0.35367665 0.84636171 0.49411609
0.64073151 0.49412147 0.78602746
0.75077339 0.41500386 0.84269063
0.71339859 0.76978136 0.11641839
0.65176999 0.75488360 0.59060244
0.90272725 0.50488506 0.89550770
0.88226910 0.26444720 0.36524367
0.11065467 0.98870302 0.11376130
0.05077779 0.89578607 0.57460954
0.59056811 0.40676236 0.98391715
0.62795537 0.46109065 0.57857678
0.65572069 0.84699612 0.01665030
0.34782032 0.00136486 0.66304974
0.26689157 0.39137123 0.18830260
0.08534679 0.39793091 0.49347204
0.14077561 0.75154573 0.10157709
0.24171419 0.90637708 0.68359630
0.38190374 0.25173210 0.33523311
0.63363352 0.32956623 0.50137799
0.59612261 0.97518120 0.10560310
0.63994014 0.72979587 0.44262763
0.55283644 0.35766574 0.23905112
0.14380842 0.48782219 0.85164982
0.00791871 0.85989807 0.15859394
0.07880761 0.76703476 0.64290185
0.74404090 0.50411133 0.35962749
0.60353177 0.25431012 0.64982042
0.74593459 0.91096764 0.18277048
0.74043046 0.11301972 0.76225336
0.63450463 0.25553450 0.08304475
0.44309289 0.20432347 0.64996206
0.58489533 0.56438144 0.99738854
0.33356098 0.50932020 0.68363501
0.81870072 0.23524285 0.10808257
0.59862003 0.10566728 0.48837113
0.90319667 0.51225327 0.10956816
0.77758470 0.57591438 0.67991903
0.30381029 0.95652749 0.34991729
0.26166759 0.10386581 0.63205092
0.39258992 0.60948919 0.01860596
0.51902620 0.58523089 0.58887754
0.75024362 0.09976140 0.18366140
0.96965848 0.05369317 0.61221157
0.82906247 0.61110115 0.24999118
0.99910066 0.61535111 0.60754124
0.47154401 0.20339756 0.13248346
0.50511502 0.06576580 0.60772071
0.35716453 0.62356405 0.24046037
0.33926808 0.66691587 0.50837218
0.97393799 0.13620339 0.12511891
0.88418192 0.23487972 0.72117287
0.87822955 0.73203808 0.16603776
0.88708444 0.64916229 0.73603221
0.15090560 0.89163188 0.24158170
0.35451781 0.10540421 0.73028386
0.26534762 0.67548598 0.94186823
0.38629267 0.33897656 0.76712856
0.73557636 0.36308081 0.07770464
0.85023658 0.99590963 0.69454640
0.91139067 0.63424843 0.02973770
0.83574758 0.68324982 0.50427816
0.23164689 0.15351242 0.89760433
0.16451963 0.15569488 0.49212606
0.46681288 0.70011025 0.12639947
0.38319517 0.48586360 0.51340263
0.73955195 0.14732492 0.02656752
0.82429200 0.17656168 0.48077928
0.97830447 0.87370919 0.86668457
0.89231500 0.52449749 0.59400790
0.32248459 0.07859959 0.26344489
0.40735476 0.06475717 0.50803134
0.38394850 0.51222064 0.11844769
0.21962643 0.78060053 0.60932035
0.86459940 0.98233494 0.29023874
0.01164273 0.37810342 0.69309515
0.00680464 0.63124916 0.39153867
0.77714780 0.69574827 0.60430562
0.71593823 0.39934838 0.23362767
0.29697175 0.47586142 0.86243471
0.19487511 0.86718368 0.53356303
0.13791396 0.74134171 0.95057340
0.64944185 0.53867998 0.25240917
0.30613824 0.23780265 0.10811177
0.87222330 0.97954785 0.45433700
0.90598228 0.90557270 0.01644021
0.37701189 0.47069771 0.26735053
0.42100552 0.00364793 0.08781702
0.47699766 0.87073229 0.36054537
0.16780727 0.09773513 0.77502198
0.89413726 0.49873891 0.40002104
0.73335327 0.17204675 0.58009554
0.87336370 0.84885100 0.49504371
0.91194176 0.73915990 0.65354845
0.18574366 0.28939019 0.43201770
0.25569826 0.33571499 0.90291722
0.37641846 0.74258184 0.37445738
0.39058623 0.76056049 0.82478319
0.97581423 0.38886262 0.36922932
0.95705382 0.39284203 0.99713765
0.72032102 0.86676948 0.57416497
0.83957646 0.79091713 0.00922797
0.30133751 0.34684293 0.50904098
0.36645845 0.36405536 0.98546006
0.23701932 0.91136041 0.15384452
0.29469067 0.72212898 0.10977084
0.85263565 0.34001691 0.49901050
0.99949955 0.64221268 0.87693766
0.75589732 0.92920220 0.35675895
0.68422069 0.00137004 0.84490245
0.32293508 0.22508923 0.59407795
0.43776585 0.46169268 0.89033963
0.36103851 0.85914090 0.26380532
0.50408121 0.85963821 0.13114340
0.85593655 0.42323971 0.28448706
0.85788882 0.01227214 0.15141118
0.98502089 0.90757430 0.37989692
0.87906408 0.15654899 0.24778103
0.99607300 0.34092755 0.16588809
0.43796833 0.29306979 0.87916396
0.26894704 0.80333268 0.39775084
0.51669629 0.88669019 0.88158597
0.75013590 0.33183083 0.40713147
0.72674367 0.42671421 0.67772247
0.90329614 0.77157839 0.33077546
0.48526558 0.91640157 0.57437725
0.37342871 0.60780150 0.62153300
0.13963788 0.61513345 0.87621831
0.61183548 0.86480571 0.63207014
0.88226577 0.37699870 0.88503194
0.36641630 0.12294409 0.13613875
0.38298691 0.38594762 0.39457490
0.65287192 0.62106784 0.36984041
0.11669257 0.38723873 0.12277107
0.13728541 0.37558690 0.63044579
0.61739678 0.62490731 0.87816924
0.84239344 0.88395002 0.89679486
0.13175435 0.12908584 0.36767538
0.66090972 0.13431370 0.87760631
0.62196407 0.38194929 0.13080324
0.86217864 0.13518552 0.61504914
0.36289885 0.88402321 0.88518039
0.00055316 0.00250403 0.01185510
0.00406483 0.01166005 0.47782101
0.97859997 0.51539387 0.99248715
0.98730403 0.51607829 0.50182213
0.50069508 0.98246777 0.00178955
0.51727293 0.99612392 0.48371306
0.46742836 0.48448089 0.00987278
0.51691688 0.48270988 0.49734761
0.98996163 0.24062822 0.25419221
0.01114865 0.27107161 0.77475432
0.99503257 0.75152027 0.23792797
0.99631053 0.76530881 0.75884781
0.49002568 0.23190000 0.26252008
0.48904123 0.26561031 0.76054347
0.48717838 0.75222830 0.24632271
0.49329918 0.75554903 0.74210372
0.24430308 0.98783746 0.24807963
0.24871606 0.01763178 0.72974891
0.26435862 0.49950743 0.24622407
0.23774307 0.49910676 0.76261769
0.75340549 0.99840085 0.24589258
0.75035222 0.99526739 0.75307526
0.75924336 0.50156194 0.24200994
0.75194946 0.49828513 0.75832208
0.23771595 0.24366805 0.98536746
0.25659706 0.24123665 0.49577078
0.22899294 0.76863042 0.01598850
0.24451964 0.75044810 0.50410334
0.73598868 0.25216067 0.02466156
0.74900516 0.25910153 0.48856725
0.74105916 0.75469293 0.01653562
0.74257245 0.76796702 0.51317421
0.44404380 0.16788622 0.43956586
0.45446242 0.18139256 0.91457109
0.44242729 0.66931468 0.44782444
0.42662920 0.69986574 0.92842396
0.93781342 0.20720982 0.46091730
0.95645275 0.18902183 0.95022252
0.93139911 0.70675589 0.43496151
0.92881081 0.71782692 0.93975014
0.19903259 0.06083018 0.05988757
0.17561827 0.04564248 0.54054834
0.18837073 0.55858375 0.05248351
0.17615767 0.55234240 0.56625423
0.69147400 0.04729320 0.08481879
0.68314507 0.04641099 0.56188345
0.68802514 0.55422234 0.05481213
0.70261169 0.55057102 0.58065587
0.30447159 0.04972012 0.44172749
0.32239722 0.04782758 0.94720286
0.29606753 0.55677491 0.45593121
0.31117366 0.55997750 0.94143689
0.79913868 0.05750213 0.43090165
0.80276662 0.06445983 0.95922486
0.81322886 0.55540930 0.45730327
0.80831247 0.57606518 0.95356114
0.06040502 0.19138045 0.07767908
0.08640079 0.21228250 0.55483782
0.06171099 0.70132381 0.03667669
0.06835683 0.69679269 0.54201716
0.54575729 0.18061977 0.05174512
0.55312531 0.17598024 0.56569707
0.54829212 0.68015527 0.04631063
0.57139017 0.68746989 0.52893864
0.11980913 0.12078443 0.88974022
0.12345625 0.63524451 0.37651592
0.61859275 0.10824235 0.36955532
0.45617634 0.45076515 0.19299428
0.43776924 0.43527346 0.68476631
0.42931159 0.93273784 0.18892514
0.46196004 0.96633845 0.68146112
0.93867829 0.44559921 0.20224899
0.92772520 0.46628827 0.68727328
0.93950228 0.95594314 0.20254884
0.95834612 0.92975774 0.67296362
0.20341198 0.31603386 0.32115761
0.18788527 0.31031071 0.79651098
0.18683602 0.79766387 0.31276401
0.18060908 0.81922941 0.80722057
0.68555330 0.31880979 0.30409243
0.69692877 0.32018754 0.80728600
0.68605651 0.80800063 0.30849173
0.66056827 0.77390615 0.79669847
0.33116177 0.30210315 0.20373507
0.31399369 0.30003832 0.69161862
0.31137133 0.79029150 0.19488584
0.30617499 0.80789440 0.69490886
0.80506296 0.30749595 0.19859103
0.80834291 0.32209654 0.69517712
0.80700036 0.81339772 0.19702536
0.79496478 0.80470879 0.69838694
0.06664511 0.44906521 0.30015290
0.03911026 0.43901237 0.79970162
0.06194735 0.95799428 0.29615900
0.04194681 0.96273056 0.81968179
0.57145374 0.46759692 0.30019504
0.54330966 0.43941696 0.81824154
0.54959048 0.92668092 0.29444311
0.57270585 0.95185445 0.80406144
0.12641195 0.86728326 0.13376400
0.14260826 0.86936470 0.63325703
0.62369831 0.35906736 0.62164606
0.64103999 0.87671882 0.13761623
0.20098765 0.19955826 0.19357915
0.19667502 0.19668653 0.67748140
0.20018217 0.67774164 0.19254371
0.19113936 0.69693717 0.69623223
0.66483883 0.20848006 0.18215238
0.70162966 0.20052911 0.69033947
0.70005889 0.68982564 0.18578438
0.69683702 0.67364396 0.68178699
0.44494677 0.04761493 0.31327234
0.44315957 0.06095417 0.81032326
0.43896095 0.57169879 0.30246689
0.41778666 0.53899094 0.80675321
0.94293015 0.06413663 0.31352190
0.92679517 0.06028577 0.76917829
0.94372565 0.56636994 0.30809793
0.94228940 0.57362300 0.80873399
0.06501336 0.07652422 0.19353356
0.07231721 0.05888492 0.68777554
0.05520911 0.56368464 0.17893772
0.06013485 0.57051331 0.69457832
0.53329627 0.05293685 0.17849066
0.57372799 0.08620967 0.71700387
0.56703003 0.57411118 0.17781009
0.56378872 0.54917434 0.69867036
0.29544655 0.17712753 0.32642011
0.30227330 0.18098289 0.80638008
0.30581846 0.68078196 0.32051262
0.28947678 0.70528953 0.82523218
0.78142242 0.18284274 0.30391047
0.81239942 0.20645803 0.81559496
0.80208366 0.69730958 0.31708412
0.80122133 0.68503139 0.80355362
0.37998777 0.11407049 0.62172097
0.36613479 0.62242243 0.12941340
0.86155898 0.12956605 0.13357831
0.87506121 0.62039124 0.13654046
0.87134755 0.63580694 0.62567869
0.18253112 0.44022604 0.44886615
0.19008939 0.43618764 0.93671614
0.20245544 0.92516389 0.43466418
0.19555372 0.94258282 0.93917307
0.69480114 0.44502483 0.45031646
0.69368011 0.45668312 0.93705572
0.69410875 0.93386612 0.45181783
0.68422748 0.95041098 0.94627113
0.41485431 0.27464320 0.04792282
0.42709290 0.28370382 0.55852497
0.43574912 0.79224412 0.06147899
0.45120384 0.80651446 0.54626686
0.93493739 0.29416313 0.06311281
0.97874047 0.33301863 0.56795485
0.93459609 0.81002121 0.07108305
0.95330544 0.81449796 0.56856575
0.05414638 0.31227662 0.41797659
0.06380443 0.31845479 0.96518237
0.04741451 0.82760653 0.44900761
0.04401012 0.82485897 0.93911562
0.53991904 0.29029639 0.44010852
0.54827898 0.30541681 0.94359466
0.55047781 0.78975766 0.41807371
0.56291350 0.80765318 0.94872783
0.29179430 0.43758100 0.05714151
0.28674736 0.43113405 0.57560428
0.30850333 0.94487547 0.06440150
0.30249840 0.94546293 0.56852114
0.81788813 0.44379619 0.04694391
0.80110724 0.42627637 0.57470561
0.80650122 0.93610525 0.06363258
0.81553208 0.95021411 0.56019082
0.36375043 0.37879865 0.88027215
0.36444629 0.86150371 0.37056958
0.87001303 0.38856473 0.38601580
0.86992471 0.88588499 0.38290462
0.25359519 0.00140960 0.00146628
0.24411425 0.98992059 0.49614886
0.24732936 0.50010235 0.99504815
0.23807994 0.49741497 0.51851050
0.74918510 0.99809323 0.00708425
0.75103831 0.99689766 0.49946607
0.75556055 0.50409726 0.99728919
0.75803092 0.49296212 0.51358727
0.26035370 0.24833818 0.26173656
0.25152388 0.24555240 0.74944527
0.24656334 0.74035116 0.25717531
0.23965240 0.75803303 0.76004763
0.73636962 0.25363581 0.24365375
0.75416152 0.26217606 0.75507295
0.74644986 0.75025216 0.25396583
0.74284667 0.74051931 0.74346799
0.00145675 0.01909477 0.25262062
0.00499460 0.99762035 0.73260379
0.00459239 0.50738115 0.24862251
0.99650363 0.51012274 0.75009303
0.48872586 0.99299125 0.24706678
0.50905006 0.01822511 0.75610915
0.50542090 0.51817507 0.24469308
0.48817465 0.49387975 0.75056714
0.00909818 0.24715572 0.01450545
0.01359952 0.26244089 0.50134672
0.99407345 0.76279831 0.99811410
0.99442332 0.76029237 0.49693679
0.48938960 0.23660343 0.99212637
0.49412033 0.23052123 0.50007603
0.49496291 0.74836579 0.98997227
0.49609419 0.74658144 0.48353145
Direct configuration=      3
0.11892066 0.26400867 0.21775810
0.11620984 0.26447411 0.87568544
0.16622620 0.73491162 0.40531447
0.15649486 0.52549847 0.66149927
0.62679568 0.95861624 0.22462100
0.51558278 0.15317851 0.82869691
0.75354164 0.65854215 0.08875286
0.85479433 0.41691469 0.75486955
0.30297012 0.18141448 0.41890322
0.12100507 0.01720954 0.88561041
0.23747039 0.42691454 0.34742807
0.24299225 0.61301406 0.75480632
0.66746747 0.20816845 0.42058057
0.88980885 0.09564448 0.01556912
0.51615565 0.36923246 0.62340912
0.52207942 0.87956628 0.73736035
0.28369288 0.02948721 0.14151631
0.00922739 0.14883107 0.83210992
0.23750813 0.60087470 0.32278420
0.09101887 0.52605582 0.08854920
0.60888756 0.99083282 0.40932580
0.59082966 0.08592102 0.98688197
0.69189625 0.64816171 0.49078296
0.47994134 0.65770693 0.81886460
0.00376475 0.12351296 0.39495463
0.15952859 0.18220415 0.99256050
0.12677936 0.51822928 0.43077370
0.27290107 0.81761188 0.88822103
0.60381176 0.14127200 0.26400158
0.66265518 0.00925660 0.67840372
0.52693304 0.57089766 0.40449457
0.73090128 0.72979916 0.89272458
0.16031933 0.06993690 0.22900979
0.04627441 0.12040465 0.97355730
0.25568388 0.57721441 0.15714501
0.09016543 0.87061010 0.73991659
0.73056207 0.08549176 0.33631680
0.83614028 0.25440614 0.92439244
0.78889592 0.79950270 0.39288293
0.59962511 0.68299714 0.76167921
0.12620931 0.01331260 0.38005394
0.18051449 0.34794381 0.99667344
0.10127966 0.67312208 0.28392884
0.97169841 0.63900866 0.18514865
0.50589937 0.11599942 0.35228078
0.82974091 0.99845039 0.83302517
0.78108669 0.51406295 0.15942541
0.73445642 0.59450801 0.85460343
0.19997825 0.38900333 0.73200835
0.21610690 0.64148919 0.47879677
0.06633541 0.67078060 0.75780106
0.14442527 0.98263464 0.64198640
0.62352057 0.70035445 0.98138888
0.74674848 0.30407078 0.59930483
0.58817360 0.66877813 0.25023671
0.71994623 0.88727644 0.76358484
0.35065937 0.16904753 0.00434538
0.06357509 0.23491108 0.65698605
0.15930390 0.85278396 0.02642653
0.27185553 0.97591750 0.84658121
0.66023720 0.26811035 0.92187283
0.59988076 0.35144547 0.74682723
0.59756375 0.83608047 0.24268562
0.41561906 0.73560973 0.64192608
0.14747290 0.47695445 0.24261996
0.18122052 0.26205826 0.60221800
0.33119046 0.81688007 0.00820038
0.35874869 0.84010807 0.49188131
0.63082432 0.50189939 0.77653383
0.74342669 0.40652291 0.86504367