Li192 P32 S160 I32
1.0
20.433000 0.000000 0.000000
0.000000 20.433000 0.000000
0.000000 0.000000 20.433000
Li I S P
192 32 160 32
Direct configuration=      1
0.11656112 0.22894447 0.27719803
0.10293339 0.24201501 0.86250896
0.14841494 0.73890652 0.39410489
0.15826330 0.51124540 0.66903445
0.64747316 0.97474066 0.23174585
0.51701617 0.14103616 0.82524613
0.75784371 0.66572645 0.08996373
0.84694555 0.43601031 0.75303577
0.27002835 0.16646583 0.41822642
0.10202860 0.01132801 0.89805476
0.24736075 0.41617146 0.33638224
0.26859351 0.61117214 0.73683586
0.66378535 0.22554786 0.40973456
0.89659636 0.10318066 0.02117490
0.50934561 0.37744997 0.60362925
0.53120408 0.86704177 0.72376132
0.26545451 0.03145804 0.13808820
0.03188713 0.12758090 0.80203830
0.23146834 0.58494642 0.33563350
0.11934308 0.48053964 0.03402635
0.60255021 0.00784541 0.38821356
0.59168284 0.09511904 0.99714517
0.60784626 0.60055133 0.50533210
0.49158746 0.60098413 0.88855103
0.99886466 0.10855198 0.40235072
0.16107211 0.16655759 0.99750264
0.10436746 0.51597672 0.40633920
0.25315007 0.78452785 0.89583684
0.60872766 0.14458344 0.26353026
0.66093264 0.01254793 0.67364193
0.52994569 0.53268525 0.38173729
0.75824978 0.77448982 0.89542441
0.17644406 0.07133293 0.25692054
0.03475747 0.12440883 0.95568322
0.26486752 0.57891988 0.16598558
0.10381855 0.86723035 0.73538064
0.73467148 0.08245161 0.33649623
0.83501232 0.25528156 0.92350625
0.78473210 0.78475788 0.39586959
0.59449816 0.66444129 0.74731989
0.10734433 0.00265263 0.41020581
0.17278037 0.32950086 0.00160215
0.10594657 0.64832022 0.26398037
0.95802661 0.62768618 0.20707675
0.51197842 0.13550185 0.36361233
0.83227228 0.99844638 0.83786410
0.77877226 0.52776971 0.14812847
0.75554635 0.58553505 0.83909316
0.22470739 0.38841364 0.72769780
0.16692090 0.64889678 0.48653805
0.09860163 0.66691051 0.76156000
0.14961324 0.99250735 0.65330252
0.63686437 0.72452576 0.97030752
0.73999581 0.32223099 0.59907671
0.58940932 0.65983864 0.25309253
0.73600544 0.88934619 0.73967881
0.35853831 0.18620885 0.99877696
0.07888227 0.24399098 0.65698697
0.15616090 0.86245059 0.01579209
0.27596341 0.97746952 0.84108944
0.66752682 0.26097077 0.92413846
0.60151037 0.35630594 0.74205566
0.60229098 0.83765397 0.24209172
0.39769604 0.74421826 0.65562727
0.13974099 0.47681316 0.23150478
0.21475125 0.28410905 0.60308175
0.32883120 0.83486296 0.00918199
0.33449555 0.84415180 0.48774085
0.63638600 0.51543709 0.77946292
0.74438911 0.42133997 0.84719787
0.70527759 0.78860951 0.12342813
0.65271511 0.74916916 0.58535833
0.89466190 0.50726488 0.90239024
0.88465354 0.26456396 0.35274525
0.10211526 0.98827909 0.10543923
0.02454557 0.90406006 0.59922952
0.58929392 0.41067913 0.00735668
0.60497591 0.48208159 0.61103731
0.66147301 0.85634319 0.02052616
0.34834119 0.99877693 0.65451441
0.26001285 0.40848495 0.17219421
0.02472339 0.38961808 0.53272957
0.15109410 0.76566677 0.10986104
0.24198783 0.90673655 0.66992101
0.40684796 0.25386185 0.34985842
0.64511283 0.33980691 0.51165527
0.60811837 0.98686058 0.09826604
0.65525395 0.74889057 0.42611416
0.53142573 0.36766848 0.22871547
0.16712878 0.50037400 0.83824789
0.02213190 0.85448538 0.15500105
0.09379651 0.76576162 0.63996035
0.72591791 0.51702573 0.36393006
0.60137592 0.25716149 0.64312141
0.74691972 0.91546076 0.16698224
0.73944552 0.11741574 0.76839906
0.66944427 0.24829398 0.09176069
0.45646763 0.19418201 0.64198489
0.59530400 0.58532878 0.01181924
0.32690666 0.49246440 0.66249127
0.83550095 0.23485675 0.09873922
0.60486668 0.10660030 0.48885511
0.91318287 0.51544409 0.11602491
0.76665966 0.58427647 0.67328512
0.28213577 0.95555329 0.36006769
0.25751049 0.09688537 0.64247733
0.38768082 0.61426179 0.01258562
0.48393695 0.59914936 0.60715300
0.76209585 0.09283963 0.16898578
0.99197475 0.09231475 0.60410937
0.82583350 0.59123479 0.25427374
0.98640683 0.61780205 0.60310862
0.47161424 0.20953075 0.13521792
0.48091818 0.05347438 0.62360317
0.38954279 0.64829193 0.23791170
0.32176131 0.66916466 0.49169893
0.98834245 0.13595523 0.14092248
0.87982149 0.23270053 0.70823642
0.88982038 0.73765418 0.15455321
0.89183582 0.65045918 0.74003891
0.15647503 0.90851294 0.24331951
0.34894696 0.09318328 0.74533548
0.23806290 0.64321130 0.97561829
0.38900667 0.34940722 0.75781326
0.74563111 0.36506170 0.02808786
0.83526246 0.00546587 0.67052010
0.88945906 0.62370226 0.02607956
0.83714654 0.66027193 0.50661902
0.23951100 0.15145036 0.89868989
0.16327269 0.16495798 0.51072073
0.46023473 0.69455268 0.12525499
0.37853424 0.48032006 0.47301008
0.73941725 0.14290084 0.98618088
0.82737577 0.17794947 0.48565881
0.98954428 0.84962881 0.85321899
0.88729530 0.52000832 0.59878464
0.33607140 0.07452832 0.25747962
0.39149176 0.08926954 0.51278129
0.39805634 0.51262587 0.11005396
0.23403358 0.77218275 0.60138612
0.86866002 0.95572903 0.28871383
0.02411129 0.37956233 0.72917986
0.01046205 0.62762137 0.38867038
0.78184467 0.71886987 0.61073827
0.71937598 0.38593898 0.23030428
0.31921886 0.47306310 0.83965281
0.15763432 0.84340442 0.50945889
0.12716145 0.72883624 0.97144714
0.64763432 0.51018686 0.22090669
0.26212633 0.23070336 0.10759621
0.87328421 0.97274555 0.45270419
0.90779564 0.91705914 0.00317152
0.36367778 0.48128471 0.27513913
0.40813104 0.00085144 0.08930249
0.44499832 0.94918635 0.37956608
0.17009450 0.08969975 0.76953978
0.89171893 0.48485904 0.40787953
0.73442588 0.17602535 0.58379131
0.84907458 0.83794215 0.49615715
0.90844375 0.74983428 0.64591110
0.18239946 0.30825309 0.43925245
0.28349055 0.28984626 0.88015746
0.44342192 0.78558136 0.37137102
0.39694135 0.75320694 0.84099261
0.98519886 0.35938243 0.36436531
0.96622410 0.38600774 0.97710776
0.71880974 0.86876167 0.53009940
0.84542210 0.78744448 0.00162891
0.32827715 0.33232615 0.49510178
0.34656934 0.34563569 0.98683862
0.24379041 0.89522446 0.14942422
0.29295549 0.71289163 0.10442368
0.85159957 0.33774398 0.49725686
0.00015194 0.62436132 0.90436289
0.75533900 0.91792837 0.34283153
0.66838102 0.99744376 0.83989980
0.33605697 0.21416904 0.57975992
0.45255181 0.44582515 0.88340807
0.34978313 0.89229466 0.25934760
0.51917723 0.86899062 0.11804534
0.84445952 0.41146513 0.27737177
0.86564370 0.01184936 0.15102604
0.98286232 0.89391118 0.38952106
0.88793789 0.14222157 0.24465099
0.00250006 0.34527237 0.16137012
0.45725376 0.29370228 0.87541903
0.28158885 0.78715966 0.37997224
0.49527737 0.90682614 0.90079082
0.75832616 0.34481126 0.40342631
0.72673844 0.43031733 0.66993122
0.90717762 0.77350758 0.34073813
0.52300079 0.87982572 0.53940502
0.35523433 0.62222728 0.62271956
0.13044441 0.62676865 0.88325090
0.62805292 0.87799549 0.62871576
0.87394135 0.38051014 0.87567886
0.36728218 0.12268417 0.12602272
0.37660759 0.38254429 0.37735766
0.63276490 0.62277302 0.37750352
0.12932393 0.37928540 0.12692120
0.12016121 0.37567372 0.63169505
0.62412295 0.62070824 0.87501187
0.86233303 0.87133956 0.88468770
0.13101782 0.13071773 0.37841358
0.64324604 0.13105311 0.87834541
0.63003244 0.37607122 0.12874894
0.86319733 0.13300179 0.61949283
0.36472046 0.87418007 0.88198679
0.00485544 0.00665209 0.00614341
0.99975889 0.00198367 0.49496657
0.99121424 0.51807690 0.00166075
0.99059597 0.51569031 0.50133694
0.51000428 0.98990269 0.00666359
0.50287869 0.00470699 0.49425201
0.49062272 0.50596866 0.99798363
0.50777343 0.49776585 0.51247483
0.98764623 0.24902378 0.25684398
0.00039639 0.25355377 0.76370519
0.00001006 0.74760096 0.24657115
0.00009024 0.75772442 0.74673971
0.50672030 0.23906707 0.26001301
0.50179271 0.25953502 0.74916970
0.49444745 0.75296214 0.24588083
0.49134156 0.74402494 0.74945881
0.25663691 0.98372344 0.24348293
0.25201918 0.01314030 0.72810571
0.25133502 0.49669903 0.25134405
0.24505640 0.49822279 0.74861591
0.76203462 0.99810096 0.25021785
0.74850673 0.00314922 0.75262022
0.75750217 0.49338482 0.25549640
0.74891425 0.50097758 0.75935594
0.25364399 0.24321359 0.98688815
0.25149500 0.24260243 0.50435327
0.23328080 0.75894250 0.00871396
0.23735730 0.75322045 0.48637955
0.75248132 0.25376732 0.00725725
0.74441079 0.26328265 0.49987014
0.73574027 0.75845847 0.01327747
0.74912547 0.75835041 0.50538364
0.43687173 0.18255425 0.44502677
0.45939695 0.18631438 0.93072707
0.43649184 0.68483016 0.44389567
0.43469649 0.69308040 0.93711353
0.93639828 0.19856065 0.44235241
0.94070521 0.19426299 0.94727556
0.93423421 0.70470587 0.44156344
0.93039506 0.70831391 0.95373284
0.18846478 0.06115267 0.05345731
0.18626389 0.05520994 0.55619493
0.20254390 0.56002670 0.05885302
0.18031983 0.55089460 0.55671690
0.69630823 0.06198501 0.06332540
0.68751955 0.06445292 0.56258428
0.69568073 0.56278199 0.06952704
0.69348040 0.55113793 0.57463036
0.30611735 0.05113680 0.44081685
0.30703897 0.05930759 0.93576702
0.29548973 0.55596026 0.44053907
0.31209662 0.55316519 0.93935566
0.80071815 0.06623941 0.44020164
0.81250342 0.05769560 0.94762819
0.80309752 0.55310839 0.45352737
0.80657749 0.57291548 0.94803471
0.05901824 0.18910998 0.05905801
0.05438454 0.18562107 0.55668785
0.05457981 0.69974324 0.06279931
0.05888544 0.69580249 0.55076419
0.56446882 0.19295722 0.05907606
0.54939812 0.18117103 0.56603613
0.55500012 0.69083135 0.05168935
0.55172752 0.68755339 0.56471778
0.12340473 0.12762589 0.87874364
0.12509499 0.62538698 0.37585618
0.62587177 0.11872751 0.37548907
0.44621752 0.44523020 0.19345058
0.43795448 0.43676136 0.68470356
0.44421197 0.93772564 0.18725224
0.45529651 0.95115083 0.68596302
0.93767007 0.43880374 0.20380876
0.94484970 0.46007765 0.69219312
0.95035534 0.94234567 0.19853388
0.94530245 0.94719149 0.68223802
0.19928236 0.30435357 0.31353120
0.18983257 0.30466373 0.80428703
0.18947700 0.80419992 0.30223773
0.18589967 0.81977490 0.80485637
0.68805554 0.30269357 0.31336476
0.68696657 0.31925120 0.81666834
0.69369632 0.80943316 0.31909033
0.68504849 0.80001780 0.80228252
0.31317218 0.29943082 0.19351271
0.30081203 0.30174383 0.68507856
0.30872493 0.79977848 0.18793539
0.30584474 0.81013750 0.69117032
0.80745460 0.30730412 0.20292222
0.80355549 0.32869766 0.69872812
0.80493825 0.81123352 0.19633191
0.80569935 0.80351001 0.69112666
0.05654678 0.44469086 0.31748569
0.05558826 0.45651546 0.81091627
0.06430508 0.94511109 0.31445449
0.05335585 0.94238786 0.80908309
0.56913365 0.45830360 0.29748319
0.54956565 0.43883457 0.80941997
0.55662500 0.93390259 0.30642756
0.56191819 0.94332692 0.80797401
0.13151499 0.87946155 0.12963043
0.13515371 0.87361064 0.62497476
0.62777489 0.36992581 0.62763573
0.63550789 0.88300780 0.13913713
0.19699289 0.18446254 0.20215825
0.18569996 0.18812025 0.68589057
0.19454558 0.68390052 0.18643659
0.18853626 0.69762696 0.69019166
0.69492275 0.18828144 0.19488116
0.69324448 0.20549059 0.69683810
0.69260569 0.69492855 0.19952163
0.69493974 0.68344922 0.68533934
0.44390231 0.04902244 0.30809429
0.43813417 0.05197270 0.81727716
0.44532928 0.56466906 0.30599178
0.42673542 0.54426740 0.80643463
0.94214887 0.05507445 0.31223951
0.93627417 0.05796896 0.80443324
0.93599030 0.56057939 0.31371280
0.93988330 0.57315576 0.81299851
0.06617420 0.06195971 0.19932602
0.06100680 0.06358550 0.70112471
0.05141419 0.55539825 0.19742526
0.05685105 0.57690422 0.69568704
0.56339840 0.05318234 0.19221851
0.55987925 0.07579653 0.71057091
0.55372420 0.57180069 0.18037807
0.55343116 0.55428218 0.69633299
0.31780731 0.18519833 0.31214846
0.30372929 0.18880117 0.80472010
0.30265787 0.68822223 0.30953208
0.29381557 0.69942378 0.81412185
0.80321993 0.18546713 0.31715896
0.81039201 0.20803225 0.80725593
0.81211990 0.69814488 0.31609198
0.80456514 0.69059867 0.81112248
0.37519579 0.11323758 0.62692722
0.36798291 0.62366630 0.12529933
0.87268517 0.12536875 0.13214551
0.86250641 0.62094137 0.13930714
0.86954410 0.63719427 0.62434705
0.18476691 0.43463021 0.43963320
0.19475736 0.44000714 0.94724144
0.19548568 0.93576215 0.44213323
0.19389165 0.94352672 0.93434275
0.68818026 0.43944078 0.45120170
0.69471745 0.44858850 0.95273944
0.68838559 0.94661057 0.44512666
0.69466792 0.94415987 0.94771200
0.43542944 0.28955781 0.05353666
0.43326160 0.29285533 0.56365750
0.43739792 0.79936387 0.06009450
0.43392748 0.80360890 0.55972665
0.94019455 0.30811033 0.06441749
0.94478895 0.30672465 0.56771880
0.93787545 0.81773928 0.07117074
0.94842763 0.81820861 0.55909035
0.05691949 0.31094980 0.44939640
0.05691277 0.31214851 0.95094535
0.05789581 0.81318689 0.43744481
0.05284230 0.81836545 0.95118177
0.55340195 0.29767320 0.44678575
0.55810788 0.31413032 0.94288038
0.54887141 0.80409790 0.44832789
0.55595167 0.80815324 0.94088696
0.31438481 0.43769321 0.06076446
0.30225260 0.43766391 0.55470932
0.30379544 0.94737146 0.05697391
0.30463108 0.93785252 0.56197574
0.81687849 0.45392860 0.06159813
0.80484175 0.43427090 0.57072893
0.80970744 0.94265757 0.06632591
0.80586500 0.94927487 0.55554414
0.36916822 0.36834457 0.87098177
0.36372534 0.86992110 0.37463879
0.87129923 0.37361873 0.38585409
0.86482003 0.87706837 0.38317665
0.24718651 0.00495660 0.99343557
0.24824144 0.99631096 0.50265965
0.25745299 0.49704041 0.00288338
0.23946704 0.49563959 0.49951430
0.75316024 0.99967263 0.00499046
0.74492891 0.00921733 0.50078401
0.75409249 0.50982896 0.00678518
0.74751712 0.49291457 0.51124893
0.25812817 0.24506664 0.25600518
0.24456442 0.24370630 0.74650703
0.24822435 0.74498909 0.24708279
0.24290565 0.75908802 0.75100036
0.74948941 0.24645666 0.25700415
0.74768367 0.26689973 0.75646210
0.75153858 0.75214060 0.25710456
0.74767395 0.74498712 0.74879490
0.00694767 0.00291098 0.25519036
0.99539192 0.00043075 0.74924150
0.99588143 0.49923189 0.25959019
0.00102012 0.51702208 0.75446230
0.50178149 0.99510320 0.24611642
0.50210471 0.00682375 0.75615365
0.50330900 0.51191745 0.24247195
0.49026067 0.49333541 0.74919005
0.99942577 0.25071567 0.00709829
0.99710557 0.25085081 0.50390213
0.99652624 0.75999007 0.01054193
0.00032913 0.75733106 0.49704706
0.50554326 0.24645591 0.99695646
0.49635127 0.24052016 0.50258087
0.49597253 0.74984950 0.99516477
0.49094045 0.74223937 0.50294431
Direct configuration=      2
0.11507687 0.22701188 0.27834937
0.10716438 0.24134464 0.86561989
0.14460724 0.73879540 0.39681679
0.15543524 0.50945307 0.67026384
0.64758512 0.97339442 0.23143663
0.51504964 0.14170772 0.82578174
0.77941849 0.65288077 0.04511760
0.84367044 0.43499431 0.75340028
0.27543073 0.16710180 0.42117728
0.09993659 0.01002019 0.89751677
0.24175773 0.41633727 0.33700746
0.26896917 0.60869322 0.73313697
0.66457691 0.22488592 0.40919364
0.89587104 0.10330580 0.02198099
0.50727197 0.37920947 0.59773696
0.53339453 0.86623179 0.72727066
0.26620930 0.03176493 0.13816793
0.03255235 0.12932947 0.80435875
0.23077586 0.58567221 0.33437356
0.11907484 0.48027520 0.03469016
0.60026681 0.00825235 0.38782059
0.59106252 0.09413581 0.99803304
0.67099611 0.64870597 0.50536223
0.48669413 0.63370514 0.85298312
0.99999143 0.10853217 0.40139752
0.15897964 0.16383670 0.99867092
0.10399541 0.51558493 0.40285234
0.24005426 0.82789030 0.90972103
0.60737332 0.14291317 0.26340554
0.66213002 0.01650254 0.67517425
0.52850431 0.54022574 0.38751210
0.75871173 0.77450780 0.89228039
0.17709370 0.07140759 0.25655017
0.03379303 0.12350510 0.95647319
0.26453909 0.57496320 0.16209626
0.10689121 0.86721768 0.73754821
0.73352485 0.08247067 0.33566116
0.83422045 0.25655493 0.92655110
0.78150416 0.78333479 0.39851434
0.59354972 0.66106240 0.74084131
0.10811145 0.00023598 0.40873737
0.17421330 0.33052019 0.00206340
0.10466688 0.65052708 0.26453545
0.95468276 0.62835214 0.21436903
0.51064943 0.13364651 0.36404170
0.83353288 0.00027239 0.83784850
0.77349035 0.53527328 0.14654073
0.75244701 0.58604587 0.83709298
0.22552909 0.38685958 0.72769404
0.17360190 0.64501094 0.48386178
0.09658268 0.66605191 0.76217144
0.14938850 0.99258783 0.65575069
0.63611269 0.72119612 0.96737050
0.73961274 0.32460300 0.59710882
0.58815089 0.66125479 0.25639079
0.73916779 0.89124870 0.74114707
0.35927214 0.20090303 0.00191613
0.07521998 0.24252398 0.65553169
0.15116849 0.86249055 0.01893658
0.27568725 0.97934548 0.84125474
0.66909736 0.26176768 0.92256661
0.59889241 0.35902872 0.73871833
0.60371669 0.83524147 0.24170957
0.39667790 0.74286969 0.65769528
0.13833046 0.47910581 0.22824856
0.21357551 0.28043398 0.60647087
0.33305653 0.83184616 0.01272451
0.33707367 0.84369262 0.48870480
0.63367196 0.51611100 0.77198826
0.73994918 0.42395684 0.84780571
0.70692235 0.77934359 0.12097861
0.64849166 0.75789900 0.59374673
0.89271693 0.50821230 0.90490770
0.88413964 0.26451266 0.35063844
0.10086284 0.98748244 0.10684248
0.02488416 0.90498654 0.59924071
0.58552784 0.40787916 0.01148308
0.60285696 0.48426851 0.60055129
0.66059154 0.85395813 0.01979099
0.34877057 0.99793128 0.65585419
0.25823135 0.40830727 0.17280345
0.03752525 0.38792595 0.52248363
0.15560645 0.76653660 0.11278089
0.24252380 0.90559560 0.66800055
0.40619138 0.25403101 0.34912230
0.64410194 0.34018660 0.50979518
0.60597270 0.98310493 0.09884348
0.64558927 0.75925930 0.42049322
0.53141913 0.36971356 0.23696979
0.16603490 0.50066732 0.83814620
0.02180204 0.85465029 0.15719596
0.09432425 0.76584393 0.64079251
0.72186942 0.52046089 0.36200647
0.60039198 0.25875669 0.64123479
0.74525920 0.91214602 0.16643602
0.73789119 0.11948565 0.77056629
0.66611180 0.24674804 0.09250100
0.45516105 0.19431480 0.64294441
0.59022052 0.57985102 0.00394893
0.32583630 0.49205208 0.66120137
0.83343662 0.23449924 0.10020936
0.60363329 0.10614119 0.48920688
0.90497973 0.51404746 0.11350695
0.76656468 0.58324055 0.67193814
0.28611857 0.95745147 0.36204626
0.25645446 0.09632324 0.64401942
0.38928764 0.60817432 0.01195507
0.48827388 0.60109444 0.59258890
0.76013704 0.09258600 0.16885369
0.99093518 0.08974773 0.60480430
0.82410249 0.59340303 0.25407544
0.98666925 0.61676853 0.60334563
0.46863837 0.21273828 0.13624756
0.48162675 0.05390734 0.62343593
0.38696076 0.64488727 0.23684947
0.32319785 0.67032189 0.49133992
0.98638277 0.13644056 0.14310062
0.87866127 0.23275427 0.71444861
0.88661875 0.73908559 0.15585051
0.89189111 0.64976012 0.73972482
0.15703313 0.90915119 0.24486993
0.34801773 0.09291438 0.74661868
0.25434123 0.66573893 0.93645739
0.39045550 0.35035965 0.75738815
0.74042981 0.36364596 0.03140047
0.83431769 0.01001308 0.66923463
0.94884120 0.63656923 0.05786838
0.84729877 0.65329909 0.50796263
0.23977173 0.15154910 0.90257488
0.16292760 0.16278684 0.50950933
0.46409222 0.68698468 0.12648656
0.37459077 0.47996938 0.47390337
0.73844104 0.14197048 0.98792417
0.82627686 0.17880569 0.48468456
0.98995891 0.84999332 0.85194179
0.88855588 0.51772658 0.60028256
0.33882582 0.07467553 0.25663090
0.39105439 0.08770259 0.51401528
0.39796506 0.51062607 0.11302396
0.23776845 0.76624585 0.60392929
0.86794963 0.95419215 0.28813859
0.02343955 0.37986885 0.72950007
0.01012722 0.62576010 0.39205808
0.78075474 0.71744278 0.60831640
0.71906353 0.38710143 0.23002407
0.31705331 0.47433995 0.83924631
0.15891811 0.84330227 0.51273532
0.12885661 0.72418976 0.97499573
0.64455295 0.51149132 0.22180481
0.25794256 0.23094902 0.10721288
0.87360850 0.97550615 0.45073912
0.90585256 0.92043417 0.00186959
0.36120548 0.48070844 0.27927561
0.40843402 0.00079143 0.09047027
0.46897725 0.90280356 0.38890884
0.17072383 0.08968566 0.77181625
0.89164490 0.48434359 0.40763743
0.73450223 0.17789934 0.58452622
0.85088530 0.84383142 0.49691111
0.90794189 0.74919633 0.64631641
0.18447314 0.30585823 0.43810590
0.28562209 0.29381116 0.88761300
0.40549480 0.76170749 0.35395369
0.38940983 0.75655818 0.84423876
0.98570607 0.35777060 0.36089933
0.96542616 0.38364887 0.97518526
0.71530153 0.86860515 0.52925839
0.84333314 0.79291092 0.00236196
0.32746256 0.33057187 0.49791892
0.37088873 0.37150904 0.98599846
0.24361365 0.89654138 0.15089020
0.29240105 0.70945377 0.10214958
0.85407592 0.33852251 0.49577463
0.99703310 0.62526557 0.90415688
0.75457146 0.91911304 0.34306067
0.66923609 0.99891650 0.84080228
0.33469268 0.21322863 0.58277894
0.45222775 0.45636686 0.87861050
0.35041264 0.89520153 0.25992352
0.51850509 0.86288205 0.12352338
0.84353680 0.41449103 0.27687329
0.86173891 0.01044218 0.15278247
0.98182935 0.89317274 0.38971528
0.88544717 0.14028009 0.24533319
0.00054522 0.34568312 0.15995196
0.46074855 0.29778174 0.87439668
0.27218353 0.79430061 0.38435652
0.49733218 0.90641826 0.90227899
0.75857907 0.34555986 0.40315264
0.72416900 0.43123924 0.66815405
0.90385913 0.77422622 0.34047798
0.51868611 0.88549621 0.54994620
0.35759237 0.62180303 0.62031235
0.12742045 0.62585442 0.88370223
0.62880330 0.88459796 0.63133241
0.87026913 0.38165394 0.87674606
0.36673918 0.12319373 0.12413852
0.37076815 0.38052828 0.37876377
0.63057037 0.62782069 0.38000971
0.12773747 0.37915384 0.12715064
0.11987443 0.37435317 0.63259729
0.61944577 0.61857517 0.87024242
0.86321899 0.87140187 0.88326322
0.13245435 0.12803861 0.37786253
0.64152013 0.13149012 0.87929143
0.62659522 0.37422295 0.13243058
0.86369409 0.13725539 0.61976486
0.36519395 0.87758873 0.88378984
0.00532886 0.00531619 0.00599622
0.00005392 0.00113967 0.49364226
0.99056504 0.51578323 0.00235956
0.99084179 0.51463729 0.50104360
0.50909097 0.99000995 0.00620507
0.50100617 0.00525733 0.49327024
0.48627923 0.49812834 0.00166405
0.50193235 0.49282245 0.50998310
0.98641796 0.24769816 0.25425046
0.00121894 0.25431577 0.76512381
0.99855233 0.74920816 0.24842064
0.99867659 0.75745408 0.74700008
0.50673737 0.23936885 0.26061967
0.50196959 0.25977327 0.74884062
0.49239527 0.75345535 0.24524381
0.48993091 0.74161661 0.75433074
0.25737431 0.98367029 0.24383402
0.25158643 0.01168353 0.72883981
0.24958374 0.49691502 0.25186069
0.24361431 0.49706937 0.74767237
0.76205598 0.99736701 0.24901869
0.74959741 0.00535782 0.75345064
0.75568966 0.49565828 0.25387534
0.74662368 0.50124834 0.75763787
0.24832569 0.23962932 0.98787491
0.25060241 0.24128757 0.50671358
0.23306987 0.76323778 0.00777325
0.23652175 0.75205800 0.48865482
0.75053013 0.25273955 0.00892034
0.74390889 0.26401335 0.49917645
0.73574030 0.75769322 0.00730671
0.73743646 0.75394334 0.50571191
0.43496877 0.18150456 0.44487634
0.45668101 0.18935800 0.92983301
0.43785896 0.68749572 0.44496374
0.42960121 0.69288481 0.93727391
0.93536778 0.19743445 0.44089331
0.93956818 0.19334395 0.94686734
0.93402792 0.70623281 0.44162959
0.92785165 0.70587748 0.96129822
0.18765355 0.05766915 0.05329848
0.18559699 0.05358758 0.55750470
0.19902456 0.56264021 0.05785461
0.17819595 0.55088048 0.55931793
0.69471676 0.05967858 0.06372116
0.68800825 0.06564907 0.56277010
0.69215315 0.56657451 0.06528286
0.69530811 0.55230239 0.57353016
0.30573551 0.05059025 0.44256703
0.30540453 0.05552284 0.93513612
0.29085746 0.55570026 0.44171239
0.31080259 0.55429393 0.93767702
0.79969870 0.06694047 0.43963531
0.81171164 0.05659780 0.94858553
0.80270044 0.55471040 0.45134989
0.80115600 0.57002618 0.94624352
0.05677842 0.18762000 0.06006114
0.05379601 0.18357833 0.55491242
0.05216239 0.70236992 0.06650101
0.05798757 0.69589103 0.55164375
0.56087295 0.19143607 0.05986570
0.54775802 0.18067467 0.56628978
0.55393355 0.68599324 0.04728959
0.55574342 0.69339821 0.55831618
0.12334518 0.12584526 0.88052568
0.12476104 0.62552310 0.37575145
0.62538153 0.11859268 0.37562528
0.44514932 0.44496196 0.19911325
0.43612569 0.43598067 0.68119291
0.44417102 0.93681334 0.18769672
0.45654143 0.94949161 0.68672778
0.93645740 0.43972287 0.20232666
0.94257513 0.45923255 0.69406520
0.94894637 0.94220096 0.19799636
0.94537024 0.95400591 0.67843949
0.19722033 0.30332717 0.31323695
0.19261955 0.30545398 0.80760336
0.18677648 0.80336343 0.30232204
0.18108615 0.81175792 0.80910370
0.68742548 0.30351956 0.31380810
0.68352374 0.32159218 0.81501366
0.69347893 0.81290502 0.32029013
0.68528763 0.80146726 0.80035092
0.31107848 0.29907505 0.19286223
0.30152240 0.30005230 0.68661522
0.30828321 0.80034450 0.18837669
0.30445692 0.80829997 0.69757741
0.80646045 0.30732113 0.20329455
0.80216665 0.32857210 0.69803972
0.80338273 0.81091195 0.19820745
0.80465764 0.80343455 0.68823125
0.05619530 0.44464458 0.31508722
0.05400541 0.45657259 0.81184273
0.06291841 0.94304943 0.31397012
0.05222147 0.94269793 0.80715932
0.56814046 0.46292859 0.30275756
0.54712000 0.44202762 0.80507601
0.55862215 0.93247347 0.30568774
0.56281937 0.94399650 0.80943975
0.13089798 0.87903146 0.13193454
0.13474534 0.87389031 0.62700269
0.62664322 0.37180756 0.62478911
0.63540680 0.87821712 0.13746750
0.19553518 0.18376707 0.20206989
0.18568013 0.18793135 0.68976681
0.19672082 0.68266959 0.18908383
0.18788901 0.69549421 0.69176992
0.69367481 0.18810151 0.19566914
0.69135065 0.20611060 0.69710620
0.69089798 0.69406039 0.20376863
0.69427188 0.68371859 0.68377179
0.44405337 0.04701437 0.30933086
0.43769919 0.05084136 0.81756047
0.44173077 0.56600190 0.30982518
0.42400089 0.54747007 0.79951889
0.94128685 0.05382233 0.31261411
0.93696309 0.05973157 0.80507318
0.93476520 0.55952827 0.31466526
0.93763478 0.57281554 0.81400279
0.06534243 0.06151660 0.19999320
0.06234717 0.06654916 0.70239133
0.04942761 0.55795888 0.19742736
0.05449714 0.57617290 0.69653400
0.56398983 0.05100069 0.19281500
0.55928271 0.07606414 0.71142519
0.54978586 0.57376816 0.18379698
0.55099382 0.55524611 0.68936749
0.31692342 0.18506505 0.31188990
0.30468292 0.18817527 0.80795821
0.30479279 0.69141431 0.31261343
0.29461224 0.69286285 0.81468579
0.80185099 0.18560207 0.31795477
0.80663947 0.21069165 0.80978687
0.81030237 0.69865692 0.31867322
0.80366046 0.69069813 0.80885279
0.37468213 0.11215415 0.62843585
0.36777949 0.62171005 0.12484764
0.87080775 0.12416337 0.13258965
0.86549878 0.62258222 0.13827658
0.86965597 0.63624997 0.62421805
0.17996223 0.43364823 0.44274324
0.19323996 0.44175262 0.94665691
0.19631791 0.93431662 0.44290633
0.19123151 0.94045777 0.93527192
0.68887338 0.44068824 0.44993579
0.68845020 0.44558345 0.95375983
0.68722317 0.94758899 0.44489090
0.69392351 0.94295345 0.94685500
0.43563187 0.29227633 0.05259499
0.43107912 0.29134779 0.56448620
0.43842349 0.79594091 0.06188954
0.43205202 0.80469303 0.56285184
0.93822450 0.30718067 0.06343070
0.95038021 0.31028396 0.56243769
0.93786948 0.82189147 0.07090409
0.94719410 0.81861256 0.56067138
0.05970650 0.30403398 0.44153224
0.05634172 0.31074747 0.95177267
0.05778105 0.81490492 0.44052245
0.05346168 0.81563545 0.95000058
0.55077573 0.29715071 0.44728971
0.56033041 0.31305458 0.94396771
0.54493628 0.81683498 0.45067577
0.55403295 0.80488831 0.93879302
0.31084584 0.44147205 0.06148895
0.29912123 0.43674119 0.55565999
0.30414304 0.94521094 0.05753027
0.30503275 0.93698342 0.56278259
0.80990830 0.45356264 0.06312846
0.80556135 0.43442684 0.56873900
0.80822326 0.94038255 0.06593982
0.80489980 0.94945983 0.55526296
0.37235474 0.37245022 0.86987926
0.36188810 0.86635329 0.37451165
0.87200114 0.37362075 0.38391087
0.86319368 0.87731534 0.38425799
0.24713912 0.00188333 0.99410979
0.24801698 0.99549059 0.50385921
0.25411269 0.50103944 0.00242231
0.23590872 0.49483360 0.50156968
0.75180277 0.99809002 0.00501419
0.74420104 0.00989492 0.50040633
0.74825242 0.50824928 0.00562113
0.74838928 0.49372016 0.50988285
0.25670241 0.24450977 0.25578233
0.24583686 0.24320600 0.74981164
0.24883306 0.74625240 0.24837809
0.24158132 0.75460845 0.75530083
0.74830453 0.24668882 0.25744256
0.74495950 0.26856234 0.75629129
0.74928420 0.75210793 0.25908219
0.74702138 0.74558426 0.74696121
0.00596451 0.00194017 0.25516762
0.99569434 0.00337824 0.74827791
0.99468090 0.49968709 0.25844029
0.99884331 0.51654774 0.75569813
0.50107116 0.99436002 0.24751777
0.50240092 0.00636465 0.75685080
0.50090296 0.51368731 0.24699312
0.48787628 0.49510003 0.74344681
0.99819939 0.24946067 0.00722100
0.99845953 0.24932364 0.50044232
0.99479887 0.76245851 0.01103946
0.99983750 0.75798137 0.49871745
0.50529811 0.24660883 0.99642783
0.49402578 0.23953129 0.50278728
0.49432247 0.74733891 0.99417779
0.49105429 0.74873985 0.50215307
Direct configuration=      3
0.11653928 0.26889553 0.23088797
0.10200485 0.24323529 0.86362909
0.14788849 0.73960722 0.39640351
0.16044763 0.50928353 0.66692220
0.64678800 0.97394627 0.22925499
0.51191135 0.14062945 0.83212913
0.78217923 0.65170451 0.04456878
0.84240153 0.41944084 0.74226309
0.30328824 0.17692620 0.42899937
0.09969673 0.01280368 0.89885540
0.25007427 0.41795460 0.33776431
0.27279889 0.60893731 0.73699830
0.66511156 0.22201494 0.40092367
0.89431147 0.10070720 0.01928094
0.50469672 0.38209323 0.59947977
0.52619010 0.86445010 0.72580009
0.26592287 0.03621523 0.13891528
0.00926089 0.13764747 0.83626598
0.23530706 0.59007767 0.34080263
0.09562566 0.49858901 0.09246801
0.59848793 0.00744395 0.38882465
0.59131270 0.09173952 0.99634239
0.71371400 0.63776187 0.48506783
0.48787990 0.62889528 0.85114714
0.99961612 0.11086457 0.39737542
0.16078224 0.17287698 0.00247198
0.10503303 0.51928823 0.41731826
0.25217531 0.78330412 0.89520563
0.60741001 0.13983700 0.25992721
0.65973536 0.01164401 0.67310321
0.50174997 0.59792820 0.41131744
0.75703127 0.77146051 0.89451033
0.17363874 0.07588336 0.25645586
0.04009723 0.12376802 0.97069145
0.25951757 0.57786012 0.15384515
0.09703212 0.86366521 0.73606217
0.73279925 0.08161959 0.33438579
0.83555883 0.25193199 0.92125793
0.78300261 0.78363140 0.39763981
0.61622230 0.70578359 0.77224395
0.10971280 0.00697834 0.40724150
0.17057558 0.33179320 0.00014709
0.10828357 0.66095690 0.26638863
0.95986785 0.62921082 0.20665047
0.50827578 0.13873175 0.36197045
0.83144223 0.99535434 0.83636926
0.77792272 0.53204716 0.14420586
0.74319307 0.59216136 0.83900799
0.22445920 0.38732684 0.72841090
0.16683534 0.65112377 0.48824271
0.10121691 0.66217535 0.76097367
0.15239813 0.98953851 0.65264374
0.63417065 0.71203766 0.97855591
0.73757111 0.33109250 0.58070221
0.59306571 0.66609887 0.25721145
0.73592352 0.88847812 0.73252753
0.34849414 0.16904183 0.99135566
0.07723979 0.24025672 0.65558665
0.15768906 0.86321779 0.01591302
0.27615868 0.98302570 0.84392611
0.66903989 0.25770192 0.91820313
0.58997017 0.35916773 0.73720510
0.60491140 0.83716282 0.24322778
0.39763750 0.74141474 0.65164245
0.14641822 0.49870847 0.25543622
0.21137069 0.27833077 0.60502607
0.32661227 0.84206420 0.00522820
0.33596858 0.84649054 0.48579503
0.63263060 0.51856368 0.77595937
0.73866013 0.41388699 0.84507649