  vasp.5.4.4.18Apr17-6-g9f103f2a35 (build Apr 27 2017 19:33:31) gamma-only       
  
 executed on       CrayXC-Intel16 date 2019.09.16  00:57:32
 running on  288 total cores
 distrk:  each k-point on  288 cores,    1 groups
 distr:  one band on NCORES_PER_BAND=   8 cores,   36 groups


--------------------------------------------------------------------------------------------------------


 INCAR:
 POTCAR:    PAW_PBE Li 17Jan2003                  
 POTCAR:    PAW_PBE I 08Apr2002                   
 POTCAR:    PAW_PBE S 06Sep2000                   
 POTCAR:    PAW_PBE P 06Sep2000                   

 ----------------------------------------------------------------------------- 
|                                                                             |
|           W    W    AA    RRRRR   N    N  II  N    N   GGGG   !!!           |
|           W    W   A  A   R    R  NN   N  II  NN   N  G    G  !!!           |
|           W    W  A    A  R    R  N N  N  II  N N  N  G       !!!           |
|           W WW W  AAAAAA  RRRRR   N  N N  II  N  N N  G  GGG   !            |
|           WW  WW  A    A  R   R   N   NN  II  N   NN  G    G                |
|           W    W  A    A  R    R  N    N  II  N    N   GGGG   !!!           |
|                                                                             |
|      For optimal performance we recommend to set                            |
|        NCORE= 4 - approx SQRT( number of cores)                             |
|      NCORE specifies how many cores store one orbital (NPAR=cpu/NCORE).     |
|      This setting can  greatly improve the performance of VASP for DFT.     |
|      The default,   NCORE=1            might be grossly inefficient         |
|      on modern multi-core architectures or massively parallel machines.     |
|      Do your own testing !!!!                                               |
|      Unfortunately you need to use the default for GW and RPA calculations. |
|      (for HF NCORE is supported but not extensively tested yet)             |
|                                                                             |
 ----------------------------------------------------------------------------- 

 POTCAR:    PAW_PBE Li 17Jan2003                  
   VRHFIN =Li: s1p0                                                             
   LEXCH  = PE                                                                  
   EATOM  =     5.3001 eV,    0.3895 Ry                                         
                                                                                
   TITEL  = PAW_PBE Li 17Jan2003                                                
   LULTRA =        F    use ultrasoft PP ?                                      
   IUNSCR =        1    unscreen: 0-lin 1-nonlin 2-no                           
   RPACOR =    1.500    partial core radius                                     
   POMASS =    7.010; ZVAL   =    1.000    mass and valenz                      
   RCORE  =    2.050    outmost cutoff radius                                   
   RWIGS  =    2.600; RWIGS  =    1.376    wigner-seitz radius (au A)           
   ENMAX  =  140.000; ENMIN  =  100.000 eV                                      
   ICORE  =        2    local potential                                         
   LCOR   =        T    correct aug charges                                     
   LPAW   =        T    paw PP                                                  
   EAUG   =  331.638                                                            
   DEXC   =    0.000                                                            
   RMAX   =    2.098    core radius for proj-oper                               
   RAUG   =    1.300    factor for augmentation sphere                          
   RDEP   =    2.094    radius for radial grids                                 
   RDEPT  =    1.810    core radius for aug-charge                              
                                                                                
   Atomic configuration                                                         
    4 entries                                                                   
     n  l   j            E        occ.                                          
     1  0  0.50       -51.8549   2.0000                                         
     2  0  0.50        -2.8742   1.0000                                         
     2  1  0.50        -1.3606   0.0000                                         
     3  2  1.50        -1.3606   0.0000                                         
   Description                                                                  
     l       E           TYP  RCUT    TYP  RCUT                                 
     0     -2.8742052     23  2.050                                             
     0     27.2116520     23  2.050                                             
     1     -1.3605826     23  2.050                                             
     2     -1.3605826     23  2.050                                             
  local pseudopotential read in
  partial core-charges read in
  partial kinetic energy density read in
  atomic valenz-charges read in
  non local Contribution for L=           0  read in
    real space projection operators read in
  non local Contribution for L=           0  read in
    real space projection operators read in
  non local Contribution for L=           1  read in
    real space projection operators read in
    PAW grid and wavefunctions read in
 
   number of l-projection  operators is LMAX  =           3
   number of lm-projection operators is LMMAX =           5
 
 POTCAR:    PAW_PBE I 08Apr2002                   
   VRHFIN =I : s2p5                                                             
   LEXCH  = PE                                                                  
   EATOM  =   315.8678 eV,   23.2156 Ry                                         
                                                                                
   TITEL  = PAW_PBE I 08Apr2002                                                 
   LULTRA =        F    use ultrasoft PP ?                                      
   IUNSCR =        1    unscreen: 0-lin 1-nonlin 2-no                           
   RPACOR =    2.200    partial core radius                                     
   POMASS =  126.904; ZVAL   =    7.000    mass and valenz                      
   RCORE  =    2.300    outmost cutoff radius                                   
   RWIGS  =    2.810; RWIGS  =    1.487    wigner-seitz radius (au A)           
   ENMAX  =  175.647; ENMIN  =  131.735 eV                                      
   ICORE  =        3    local potential                                         
   LCOR   =        T    correct aug charges                                     
   LPAW   =        T    paw PP                                                  
   EAUG   =  370.139                                                            
   DEXC   =    0.000                                                            
   RMAX   =    2.359    core radius for proj-oper                               
   RAUG   =    1.300    factor for augmentation sphere                          
   RDEP   =    2.392    radius for radial grids                                 
   RDEPT  =    2.170    core radius for aug-charge                              
                                                                                
   Atomic configuration                                                         
   13 entries                                                                   
     n  l   j            E        occ.                                          
     1  0  0.50    -32976.3739   2.0000                                         
     2  0  0.50     -5094.5933   2.0000                                         
     2  1  1.50     -4572.0131   6.0000                                         
     3  0  0.50     -1028.2813   2.0000                                         
     3  1  1.50      -859.0250   6.0000                                         
     3  2  2.50      -605.7620  10.0000                                         
     4  0  0.50      -180.5540   2.0000                                         
     4  1  1.50      -127.5306   6.0000                                         
     4  2  2.50       -50.2720  10.0000                                         
     5  0  0.50       -17.4058   2.0000                                         
     5  1  0.50        -7.0851   5.0000                                         
     5  2  1.50        -7.0750   0.0000                                         
     4  3  2.50        -7.0750   0.0000                                         
   Description                                                                  
     l       E           TYP  RCUT    TYP  RCUT                                 
     0    -17.4058016     23  2.300                                             
     0    -18.7663842     23  2.300                                             
     1     -7.0850686     23  2.300                                             
     1     -4.2150896     23  2.300                                             
     2     -7.0750295     23  2.300                                             
     3     -1.3605826     23  2.300                                             
  local pseudopotential read in
  partial core-charges read in
  partial kinetic energy density read in
  atomic valenz-charges read in
  non local Contribution for L=           0  read in
    real space projection operators read in
  non local Contribution for L=           0  read in
    real space projection operators read in
  non local Contribution for L=           1  read in
    real space projection operators read in
  non local Contribution for L=           1  read in
    real space projection operators read in
  non local Contribution for L=           2  read in
    real space projection operators read in
    PAW grid and wavefunctions read in
 
   number of l-projection  operators is LMAX  =           5
   number of lm-projection operators is LMMAX =          13
 
 POTCAR:    PAW_PBE S 06Sep2000                   
   VRHFIN =S : s2p4                                                             
   LEXCH  = PE                                                                  
   EATOM  =   276.8230 eV,   20.3459 Ry                                         
                                                                                
   TITEL  = PAW_PBE S 06Sep2000                                                 
   LULTRA =        F    use ultrasoft PP ?                                      
   IUNSCR =        1    unscreen: 0-lin 1-nonlin 2-no                           
   RPACOR =    1.500    partial core radius                                     
   POMASS =   32.066; ZVAL   =    6.000    mass and valenz                      
   RCORE  =    1.900    outmost cutoff radius                                   
   RWIGS  =    2.200; RWIGS  =    1.164    wigner-seitz radius (au A)           
   ENMAX  =  258.689; ENMIN  =  194.016 eV                                      
   ICORE  =        2    local potential                                         
   LCOR   =        T    correct aug charges                                     
   LPAW   =        T    paw PP                                                  
   EAUG   =  335.092                                                            
   DEXC   =    0.000                                                            
   RMAX   =    1.942    core radius for proj-oper                               
   RAUG   =    1.300    factor for augmentation sphere                          
   RDEP   =    1.954    radius for radial grids                                 
   RDEPT  =    1.744    core radius for aug-charge                              
                                                                                
   Atomic configuration                                                         
    6 entries                                                                   
     n  l   j            E        occ.                                          
     1  0  0.50     -2405.8406   2.0000                                         
     2  0  0.50      -211.7007   2.0000                                         
     2  1  1.50      -156.4958   6.0000                                         
     3  0  0.50       -17.2562   2.0000                                         
     3  1  0.50        -7.0085   4.0000                                         
     3  2  1.50        -6.8029   0.0000                                         
   Description                                                                  
     l       E           TYP  RCUT    TYP  RCUT                                 
     0    -17.2561641     23  1.900                                             
     0    -15.8743224     23  1.900                                             
     1     -7.0085400     23  1.900                                             
     1     -2.7779785     23  1.900                                             
     2     -6.8029130     23  1.900                                             
  local pseudopotential read in
  partial core-charges read in
  partial kinetic energy density read in
  atomic valenz-charges read in
  non local Contribution for L=           0  read in
    real space projection operators read in
  non local Contribution for L=           0  read in
    real space projection operators read in
  non local Contribution for L=           1  read in
    real space projection operators read in
  non local Contribution for L=           1  read in
    real space projection operators read in
    PAW grid and wavefunctions read in
 
   number of l-projection  operators is LMAX  =           4
   number of lm-projection operators is LMMAX =           8
 
 POTCAR:    PAW_PBE P 06Sep2000                   
   VRHFIN =P : s2p3                                                             
   LEXCH  = PE                                                                  
   EATOM  =   176.0430 eV,   12.9388 Ry                                         
                                                                                
   TITEL  = PAW_PBE P 06Sep2000                                                 
   LULTRA =        F    use ultrasoft PP ?                                      
   IUNSCR =        1    unscreen: 0-lin 1-nonlin 2-no                           
   RPACOR =    1.500    partial core radius                                     
   POMASS =   30.974; ZVAL   =    5.000    mass and valenz                      
   RCORE  =    1.900    outmost cutoff radius                                   
   RWIGS  =    2.330; RWIGS  =    1.233    wigner-seitz radius (au A)           
   ENMAX  =  255.040; ENMIN  =  191.280 eV                                      
   ICORE  =        2    local potential                                         
   LCOR   =        T    correct aug charges                                     
   LPAW   =        T    paw PP                                                  
   EAUG   =  342.924                                                            
   DEXC   =    0.000                                                            
   RMAX   =    1.935    core radius for proj-oper                               
   RAUG   =    1.300    factor for augmentation sphere                          
   RDEP   =    1.931    radius for radial grids                                 
   RDEPT  =    1.794    core radius for aug-charge                              
                                                                                
   Atomic configuration                                                         
    6 entries                                                                   
     n  l   j            E        occ.                                          
     1  0  0.50     -2084.0982   2.0000                                         
     2  0  0.50      -173.9859   2.0000                                         
     2  1  1.50      -124.4865   6.0000                                         
     3  0  0.50       -13.9692   2.0000                                         
     3  1  0.50        -5.5067   3.0000                                         
     3  2  1.50        -5.4423   0.0000                                         
   Description                                                                  
     l       E           TYP  RCUT    TYP  RCUT                                 
     0    -13.9691527     23  1.900                                             
     0    -11.7794650     23  1.900                                             
     1     -5.5066937     23  1.900                                             
     1     -0.2556953     23  1.900                                             
     2     -5.4423304     23  1.900                                             
  local pseudopotential read in
  partial core-charges read in
  partial kinetic energy density read in
  atomic valenz-charges read in
  non local Contribution for L=           0  read in
    real space projection operators read in
  non local Contribution for L=           0  read in
    real space projection operators read in
  non local Contribution for L=           1  read in
    real space projection operators read in
  non local Contribution for L=           1  read in
    real space projection operators read in
    PAW grid and wavefunctions read in
 
   number of l-projection  operators is LMAX  =           4
   number of lm-projection operators is LMMAX =           8
 
 Optimization of the real space projectors (new method)

 maximal supplied QI-value         = 18.33
 optimisation between [QCUT,QGAM] = [  8.43, 17.05] = [ 19.91, 81.38] Ry 
 Optimized for a Real-space Cutoff    1.60 Angstroem

   l    n(q)    QCUT    max X(q) W(low)/X(q) W(high)/X(q)  e(spline) 
   0      8     8.432    33.825    0.85E-04    0.69E-04    0.12E-06
   0      8     8.432     8.944    0.64E-04    0.57E-04    0.91E-07
   1      8     8.432     4.214    0.51E-04    0.11E-03    0.64E-07
 Optimization of the real space projectors (new method)

 maximal supplied QI-value         = 16.25
 optimisation between [QCUT,QGAM] = [  8.45, 17.06] = [ 20.00, 81.54] Ry 
 Optimized for a Real-space Cutoff    1.75 Angstroem

   l    n(q)    QCUT    max X(q) W(low)/X(q) W(high)/X(q)  e(spline) 
   0      9     8.451   194.483    0.52E-04    0.73E-04    0.77E-07
   0      9     8.451   190.334    0.51E-04    0.71E-04    0.75E-07
   1      8     8.451   116.687    0.93E-04    0.12E-03    0.22E-06
   1      8     8.451    88.696    0.92E-04    0.12E-03    0.22E-06
   2      8     8.451     4.877    0.16E-04    0.50E-04    0.44E-07
 Optimization of the real space projectors (new method)

 maximal supplied QI-value         = 19.84
 optimisation between [QCUT,QGAM] = [  8.53, 17.06] = [ 20.39, 81.54] Ry 
 Optimized for a Real-space Cutoff    1.75 Angstroem

   l    n(q)    QCUT    max X(q) W(low)/X(q) W(high)/X(q)  e(spline) 
   0      9     8.532   187.594    0.67E-04    0.16E-04    0.31E-06
   0      9     8.532   164.243    0.66E-04    0.15E-04    0.31E-06
   1      8     8.532    67.533    0.89E-04    0.21E-03    0.25E-06
   1      8     8.532    50.729    0.87E-04    0.20E-03    0.25E-06
 Optimization of the real space projectors (new method)

 maximal supplied QI-value         = 19.84
 optimisation between [QCUT,QGAM] = [  8.53, 17.06] = [ 20.39, 81.54] Ry 
 Optimized for a Real-space Cutoff    1.75 Angstroem

   l    n(q)    QCUT    max X(q) W(low)/X(q) W(high)/X(q)  e(spline) 
   0      9     8.532   160.924    0.60E-04    0.18E-04    0.30E-06
   0      9     8.532   130.086    0.59E-04    0.18E-04    0.30E-06
   1      8     8.532    74.434    0.88E-04    0.20E-03    0.24E-06
   1      8     8.532    49.120    0.85E-04    0.20E-03    0.24E-06

 ----------------------------------------------------------------------------- 
|                                                                             |
|  ADVICE TO THIS USER RUNNING 'VASP/VAMP'   (HEAR YOUR MASTER'S VOICE ...):  |
|                                                                             |
|      You enforced a specific xc-type in the INCAR file,                     |
|      a different type was found on the POTCAR file                          |
|          I HOPE YOU KNOW, WHAT YOU ARE  DOING                               |
|                                                                             |
 ----------------------------------------------------------------------------- 

  PAW_PBE Li 17Jan2003                  :
 energy of atom  1       EATOM=   -5.3001
 kinetic energy error for atom=    0.0000 (will be added to EATOM!!)
  PAW_PBE I 08Apr2002                   :
 energy of atom  2       EATOM= -315.8678
 kinetic energy error for atom=    0.0040 (will be added to EATOM!!)
  PAW_PBE S 06Sep2000                   :
 energy of atom  3       EATOM= -276.8230
 kinetic energy error for atom=    0.0122 (will be added to EATOM!!)
  PAW_PBE P 06Sep2000                   :
 energy of atom  4       EATOM= -176.0430
 kinetic energy error for atom=    0.0061 (will be added to EATOM!!)
 
 
 POSCAR: Li192 P32 S160 I32                      
  positions in direct lattice
  velocities in cartesian coordinates
 exchange correlation table for  LEXCH =       14
   RHO(1)=    0.500       N(1)  =     2000
   RHO(2)=  100.500       N(2)  =     4000
 


--------------------------------------------------------------------------------------------------------


 ion  position               nearest neighbor table
   1  0.109  0.270  0.222- 312 2.44 284 2.49 217 2.73 200 2.77 393 2.99
   2  0.293  0.363  0.982- 381 2.49 233 2.50 350 2.52 373 2.53  26 2.75  73 2.87 170 2.99 387 3.04
                            49 3.09
   3  0.229  0.591  0.339- 274 2.47 227 2.50 259 2.55 338 2.63  19 3.08 153 3.22  50 3.26
   4  0.148  0.521  0.780- 228 2.36 301 2.48 331 2.53 194 2.89 404 3.06 146 3.12  51 3.14
   5  0.346  0.993  0.154- 375 2.45 278 2.45 225 2.55 197 2.78 137 2.87  17 3.03  68 3.09
   6  0.534  0.131  0.775- 333 2.40 321 2.44 222 2.74 205 2.83 406 2.94  22 3.20 133 3.21
   7  0.001  0.350  0.860- 366 2.44 301 2.45 196 2.74 218 3.04
   8  0.832  0.414  0.757- 232 2.43 281 2.52 297 2.55 196 2.74 173 2.97 120 3.19  48 3.19
   9  0.404  0.498  0.589- 374 2.46 277 2.53 216 2.72 193 2.75  15 3.25
  10  0.017  0.142  0.865- 246 2.40 273 2.41 325 2.49  18 3.00 218 3.21 154 3.27
  11  0.268  0.576  0.178- 227 2.35 251 2.48 345 2.54  35 2.74 314 2.77 139 3.12  88 3.24  85 3.30

  12  0.256  0.338  0.573- 234 2.38 374 2.45 293 2.65 130 2.88 201 2.93  66 3.08
  13  0.388  0.274  0.294- 336 2.44 292 2.47 221 2.66 198 2.75 393 2.98
  14  0.913  0.088  0.026- 346 2.41 262 2.47 246 2.53 209 2.87 101 2.90 182 3.13
  15  0.512  0.383  0.609- 310 2.43 358 2.45 277 2.54  47 2.85 216 2.98 177 3.01   9 3.25
  16  0.696  0.863  0.511- 240 2.44 355 2.46 380 2.79 195 2.85 192 2.93  72 2.98 371 3.02 183 3.06
                           390 3.10
  17  0.340  0.089  0.267- 320 2.45 336 2.46 225 2.46 197 2.89 137 2.97   5 3.03
  18  0.120  0.183  0.769- 273 2.43 313 2.43 285 2.73 218 2.84 329 2.92  10 3.00 394 3.02 129 3.05
                            36 3.06
  19  0.105  0.521  0.390- 274 2.35 349 2.44 300 2.47  43 2.93   3 3.08 212 3.15  82 3.23
  20  0.009  0.599  0.917- 248 2.47 327 2.53 194 2.72 211 2.79 166 3.13
  21  0.516  0.149  0.368- 275 2.45 241 2.47 320 2.63  86 2.83 221 2.96
  22  0.488  0.090  0.918- 242 2.44 321 2.47 213 2.73 205 3.00   6 3.20  87 3.30
  23  0.892  0.608  0.509- 348 2.41 247 2.44 263 2.45 212 2.90 136 2.94 128 3.08 160 3.09
  24  0.354  0.008  0.666- 344 2.43 279 2.48 376 2.58 226 2.63  98 2.65 114 3.13
  25  0.998  0.117  0.397- 245 2.43 324 2.47 204 2.74 210 3.13
  26  0.340  0.267  0.900- 381 2.47 337 2.50 242 2.55 233 2.65   2 2.75  42 3.01
  27  0.240  0.407  0.335- 227 2.42 284 2.47 349 2.50 153 2.89 198 2.90  85 3.25
  28  0.007  0.883  0.110- 363 2.44 282 2.44 308 2.49 209 2.92 121 2.98  59 3.01  75 3.12
  29  0.759  0.096  0.181- 316 2.40 229 2.46 346 2.51 253 2.62 109 2.67 101 3.00 184 3.04 175 3.13
                            37 3.30
  30  0.864  0.024  0.728- 230 2.39 325 2.48 283 2.52 207 2.89 402 3.00
  31  0.502  0.392  0.403- 369 2.46 304 2.52 198 2.78 216 2.86
  32  0.825  0.836  0.998- 239 2.42 379 2.54 363 2.61 203 2.81 119 3.02 168 3.07
  33  0.151  0.034  0.279- 225 2.49 328 2.55 302 2.59 204 2.81 137 3.13
  34  0.237  0.835  0.081- 235 2.41 375 2.50 308 2.56 294 2.67 123 2.88 121 3.06  83 3.28
  35  0.264  0.668  0.080- 235 2.39 251 2.49 345 2.61 314 2.69  11 2.74 131 3.18
  36  0.151  0.038  0.787- 226 2.40 329 2.48 303 2.48 273 2.58 156 2.73 154 2.96  18 3.06 402 3.08

  37  0.742  0.090  0.342- 275 2.42 340 2.45 229 2.48 261 2.54  45 2.66  54 3.00 141 3.02  29 3.30

  38  0.730  0.231  0.906- 237 2.34 341 2.48 289 2.59 205 3.07 398 3.09 133 3.15  61 3.19
  39  0.978  0.899  0.395- 384 2.37 367 2.46 302 2.61 210 2.94 191 3.20
  40  0.906  0.754  0.846- 248 2.43 343 2.51 203 2.72 220 2.78 112 3.10
  41  0.157  0.263  0.427- 234 2.43 284 2.53 365 2.56 169 2.94 204 2.96 130 3.25
  42  0.333  0.161  0.002- 242 2.48 233 2.49 258 2.51 197 2.87  26 3.01 185 3.07
  43  0.005  0.623  0.383- 274 2.38 247 2.42 326 2.48  19 2.93 143 3.21  50 3.25 212 3.28
  44  0.880  0.706  0.209- 347 2.33 298 2.51 342 2.57 219 2.87 103 2.88 399 2.99 191 3.24
  45  0.642  0.016  0.302- 229 2.53 306 2.55 332 2.59 275 2.59  37 2.66  86 2.97 134 3.06 405 3.09

  46  0.881  0.028  0.534- 380 2.45 261 2.48 210 2.70 207 2.79 390 2.96
  47  0.605  0.486  0.602- 310 2.46 256 2.47 335 2.56 216 2.82  15 2.85 173 3.11
  48  0.748  0.503  0.854- 232 2.39 354 2.48 264 2.49 391 3.03  70 3.15   8 3.19 202 3.38
  49  0.269  0.462  0.871- 228 2.42 350 2.43 381 2.55 260 2.71 162 2.85 178 2.86   2 3.09
  50  0.101  0.642  0.258- 274 2.35 330 2.40 314 2.54 143 2.92 219 2.95  43 3.25   3 3.26
  51  0.093  0.662  0.758- 315 2.44 331 2.50 220 2.73 194 2.74   4 3.14
  52  0.196  0.790  0.606- 309 2.47 236 2.60 315 2.63 295 2.77  69 3.00  92 3.15
  53  0.890  0.516  0.101- 347 2.34 377 2.42 280 2.53 127 2.80 211 2.81 111 3.29
  54  0.696  0.222  0.388- 238 2.40 288 2.41 275 2.50  62 2.65 340 2.69  37 3.00 397 3.13
  55  0.677  0.509  0.346- 231 2.42 353 2.56 304 2.60 199 2.73 145 2.95  93 2.97
  56  0.783  0.881  0.760- 230 2.40 299 2.48 291 2.51 203 2.91 400 2.99 126 3.10
  57  0.502  0.846  0.861- 307 2.37 372 2.46 208 2.79 224 2.89
  58  0.397  0.099  0.519- 344 2.34 241 2.43 257 2.46 106 2.80 214 2.84 138 3.09
  59  0.108  0.990  0.112- 308 2.43 249 2.44 328 2.44 209 2.89 121 2.97  28 3.01
  60  0.266  0.896  0.773- 226 2.36 295 2.49 287 2.50  84 3.00 208 3.04 396 3.10 114 3.14 171 3.22
                           167 3.23
  61  0.866  0.269  0.970- 237 2.37 246 2.48 361 2.49 196 2.79 117 2.90 409 3.06  38 3.19
  62  0.649  0.163  0.493- 238 2.45 270 2.51 254 2.53 275 2.60  54 2.65 134 3.04
  63  0.605  0.861  0.245- 311 2.36 290 2.47 306 2.48 180 2.91 223 3.25 175 3.30
  64  0.151  0.669  0.480- 274 2.43 268 2.55 252 2.57 236 2.94 116 2.94 143 3.14
  65  0.139  0.482  0.225- 227 2.40 330 2.47 300 2.53 200 2.84  85 3.03 403 3.09
  66  0.351  0.272  0.476- 234 2.40 241 2.50 358 2.58 198 2.82  12 3.08 414 3.10 169 3.23
  67  0.259  0.664  0.918- 235 2.44 339 2.51 260 2.52 194 2.81 148 2.96
  68  0.352  0.896  0.270- 382 2.40 278 2.46 294 2.57 225 2.80 155 2.82 123 3.06   5 3.09
  69  0.336  0.749  0.594- 236 2.41 295 2.50 360 2.52 193 2.76 187 2.83 116 2.91  52 3.00
  70  0.661  0.574  0.749- 232 2.43 335 2.47 319 2.59 202 2.82 104 2.98  48 3.15
  71  0.520  0.904  0.113- 311 2.38 278 2.51 359 2.63 213 2.81 152 3.21
  72  0.659  0.756  0.418- 290 2.46 240 2.46 371 2.51 199 2.79  16 2.98 144 2.98
  73  0.160  0.329  0.014- 366 2.47 233 2.48 350 2.63 200 2.75   2 2.87 129 3.00
  74  0.927  0.400  0.477- 383 2.40 362 2.48 212 2.80 189 2.82 378 2.89 365 3.03 161 3.10
  75  0.086  0.861  0.238- 302 2.42 308 2.42 286 2.61 219 2.76 123 2.87  83 2.97  28 3.12
  76  0.014  0.841  0.640- 309 2.40 364 2.44 283 2.75 220 2.82  80 2.89 147 2.94
  77  0.593  0.498  0.095- 255 2.44 334 2.45 206 2.69 215 2.76 111 3.23
  78  0.627  0.773  0.730- 291 2.37 319 2.49 224 2.68 195 2.78 400 2.86 192 3.21
  79  0.757  0.654  0.098- 347 2.41 255 2.46 318 2.49 239 2.49 119 2.62 168 3.20
  80  0.107  0.864  0.743- 309 2.37 287 2.44 303 2.51  76 2.89 220 2.96
  81  0.003  0.396  0.102- 361 2.46 280 2.50 200 2.76 211 2.87
  82  0.092  0.411  0.503- 349 2.44 365 2.48 201 2.66 212 2.85  19 3.23
  83  0.107  0.759  0.137- 308 2.39 267 2.43 314 2.52  75 2.97 219 2.98  34 3.28
  84  0.345  0.001  0.839- 226 2.43 321 2.44 258 2.54 208 2.79 156 2.93  60 3.00
  85  0.263  0.415  0.178- 227 2.42 292 2.52 373 2.53 200 2.92  65 3.03  27 3.25  11 3.30
  86  0.608  0.152  0.264- 275 2.41 316 2.43 332 2.59 221 2.73  21 2.83  45 2.97
  87  0.623  0.034  0.986- 253 2.45 356 2.46 213 2.68 205 2.89 389 2.95  22 3.30
  88  0.392  0.641  0.251- 345 2.42 322 2.46 338 2.48 115 2.94 223 3.01 172 3.01  11 3.24
  89  0.500  0.334  0.158- 357 2.50 276 2.59 221 2.79 206 2.86
  90  0.326  0.585  0.758- 228 2.39 339 2.51 323 2.53 193 2.88 100 3.15
  91  0.413  0.976  0.410- 382 2.42 320 2.49 257 2.64 214 2.76 155 2.93 105 3.24
  92  0.112  0.884  0.516- 309 2.33 367 2.46 351 2.50 147 3.14  52 3.15 210 3.26
  93  0.758  0.389  0.350- 383 2.39 288 2.45 353 2.47 231 2.50 157 2.67 165 2.79 145 2.89 189 2.95
                            55 2.97
  94  0.649  0.337  0.512- 369 2.46 238 2.47 310 2.48 353 2.61 158 2.84 189 3.25
  95  0.768  0.681  0.914- 239 2.42 264 2.59 343 2.60  99 2.95 202 3.06 119 3.28
  96  0.717  0.106  0.766- 230 2.40 317 2.50 341 2.51 205 3.03 398 3.08 135 3.30
  97  0.663  0.242  0.079- 237 2.41 269 2.50 316 2.51 206 2.92 125 3.06
  98  0.301  0.114  0.719- 344 2.37 226 2.39 337 2.44 313 2.54  24 2.65 138 2.96 156 2.99 394 3.01

  99  0.647  0.708  0.988- 239 2.37 271 2.45 372 2.55 202 2.89  95 2.95 415 3.10 152 3.24
 100  0.250  0.518  0.641- 228 2.42 374 2.49 252 2.49 388 3.10  90 3.15 193 3.21 146 3.25
 101  0.779  0.134  0.041- 237 2.35 262 2.48 253 2.48 346 2.63 117 2.80  14 2.90 389 2.97  29 3.00

 102  0.502  0.900  0.611- 279 2.47 360 2.48 195 2.81 214 2.81
 103  0.826  0.578  0.236- 347 2.47 231 2.53 326 2.60 342 2.65  44 2.88 165 3.02 111 3.17
 104  0.765  0.585  0.648- 256 2.42 348 2.44 232 2.51 319 2.57 120 2.68  70 2.98 136 3.23
 105  0.474  0.834  0.374- 371 2.51 382 2.52 306 2.76 243 2.93 163 3.19  91 3.24 223 3.26
 106  0.488  0.096  0.622- 344 2.38 333 2.48 270 2.52  58 2.80 214 2.93
 107  0.359  0.784  0.985- 235 2.38 359 2.46 244 2.49 208 2.85 171 2.94 415 3.03
 108  0.485  0.689  0.638- 272 2.38 360 2.76 193 2.78 224 2.80 416 3.09
 109  0.851  0.003  0.171- 282 2.45 346 2.50 379 2.60 229 2.62  29 2.67 175 3.15
 110  0.819  0.175  0.503- 238 2.36 245 2.54 261 2.63 207 2.92
 111  0.740  0.482  0.150- 231 2.41 377 2.45 255 2.57 145 2.97 391 3.06 103 3.17 206 3.21  77 3.23
                            53 3.29
 112  0.895  0.704  0.703- 348 2.38 299 2.44 343 2.53 220 2.72 160 2.89 400 2.96 120 3.03  40 3.10
                           128 3.22
 113  0.503  0.104  0.115- 269 2.47 332 2.55 197 2.84 213 2.86
 114  0.207  0.968  0.651- 309 2.46 226 2.55 250 2.58 376 2.63 386 3.08  24 3.13  60 3.14 147 3.17

 115  0.489  0.634  0.145- 345 2.40 271 2.41 334 2.43  88 2.94 172 2.99 223 3.03 139 3.12 131 3.22
                           149 3.30
 116  0.290  0.643  0.510- 236 2.41 259 2.47 252 2.52 193 2.90  69 2.91  64 2.94 388 2.98 163 3.27

 117  0.847  0.234  0.106- 296 2.44 346 2.46 237 2.56 361 2.59 101 2.80  61 2.90
 118  0.997  0.151  0.649- 266 2.42 329 2.50 207 2.78 218 2.90
 119  0.863  0.701  0.042- 347 2.42 239 2.45 248 2.53 363 2.59  79 2.62  32 3.02 411 3.03 127 3.27
                            95 3.28
 120  0.854  0.568  0.743- 327 2.45 232 2.45 343 2.59 348 2.67 104 2.68 112 3.03 136 3.13   8 3.19

 121  0.114  0.885  0.011- 308 2.40 368 2.44 352 2.44  59 2.97  28 2.98 209 2.99  34 3.06
 122  0.395  0.231  0.655- 344 2.38 358 2.49 293 2.62 222 2.95 138 3.27
 123  0.217  0.901  0.205- 225 2.37 308 2.48 294 2.54 286 2.75  75 2.87  34 2.88  68 3.06
 124  0.997  0.351  0.657- 281 2.46 362 2.48 201 2.76 218 2.85
 125  0.736  0.357  0.017- 237 2.34 377 2.43 354 2.50  97 3.06 391 3.06 206 3.07
 126  0.775  0.987  0.868- 230 2.42 262 2.48 356 2.50 203 2.93  56 3.10 389 3.11
 127  0.981  0.617  0.110- 347 2.40 267 2.48 330 2.49  53 2.80 211 3.02 119 3.27
 128  0.996  0.618  0.618- 348 2.43 268 2.47 331 2.48 136 3.07  23 3.08 212 3.18 112 3.22
 129  0.170  0.240  0.898- 285 2.41 273 2.47 233 2.49 150 2.61 366 2.62  73 3.00  18 3.05
 130  0.153  0.241  0.584- 234 2.40 266 2.42 313 2.58 201 2.82  12 2.88 138 2.99  41 3.25
 131  0.396  0.612  0.020- 345 2.42 244 2.43 260 2.47 215 2.89 139 3.02  35 3.18 115 3.22
 132  0.503  0.598  0.423- 243 2.46 322 2.56 199 2.76 216 2.85
 133  0.584  0.254  0.860- 370 2.41 289 2.47 205 2.76 222 2.82 186 3.10  38 3.15   6 3.21
 134  0.606  0.028  0.447- 275 2.42 355 2.48 254 2.62 214 2.78 390 3.01  62 3.04  45 3.06
 135  0.642  0.964  0.750- 230 2.36 307 2.37 333 2.51 176 2.94 406 2.99 195 3.01  96 3.30
 136  0.896  0.506  0.609- 348 2.39 281 2.41 378 2.47  23 2.94 212 3.05 128 3.07 120 3.13 104 3.23

 137  0.239  0.083  0.163- 225 2.47 312 2.47 249 2.48 197 2.82   5 2.87  17 2.97  33 3.13
 138  0.273  0.157  0.583- 344 2.40 234 2.42 313 2.57 250 2.58  98 2.96 130 2.99  58 3.09 169 3.20
                           122 3.27
 139  0.398  0.512  0.129- 276 2.40 373 2.42 345 2.44 131 3.02 115 3.12  11 3.12 215 3.16
 140  0.125  0.044  0.470- 250 2.41 351 2.49 204 2.66 210 2.70 386 2.93
 141  0.849  0.989  0.343- 384 2.42 324 2.44 229 2.57 159 2.61 261 2.61  37 3.02
 142  0.870  0.224  0.724- 341 2.43 297 2.45 218 2.73 207 2.82 398 2.93
 143  0.099  0.745  0.357- 274 2.35 367 2.43 286 2.52  50 2.92 219 2.96  64 3.14  43 3.21
 144  0.731  0.643  0.476- 240 2.44 263 2.45 256 2.57 199 2.81  72 2.98 392 3.12 192 3.21
 145  0.663  0.405  0.247- 288 2.42 231 2.50 304 2.50 206 2.73  93 2.89  55 2.95 111 2.97
 146  0.209  0.391  0.727- 228 2.33 285 2.42 293 2.61 201 2.75 178 2.96 394 3.03   4 3.12 100 3.25

 147  0.055  0.978  0.623- 309 2.38 329 2.45 283 2.52 210 2.85  76 2.94 402 2.95  92 3.14 114 3.17

 148  0.138  0.725  0.969- 235 2.39 267 2.46 368 2.49 194 2.83  67 2.96 411 3.05 171 3.24
 149  0.603  0.651  0.259- 318 2.43 334 2.45 199 2.67 223 2.88 180 3.23 115 3.30
 150  0.164  0.157  0.995- 249 2.47 265 2.53 233 2.56 129 2.61 273 2.63 154 3.23
 151  0.831  0.762  0.395- 342 2.46 384 2.47 240 2.62 247 2.63 183 2.67
 152  0.638  0.864  0.018- 311 2.35 356 2.44 372 2.45 168 2.90  71 3.21  99 3.24
 153  0.351  0.493  0.321- 227 2.42 322 2.45 259 2.70 198 2.79  27 2.89   3 3.22
 154  0.110  0.026  0.925- 273 2.37 352 2.46 303 2.78 209 2.83  36 2.96 150 3.23  10 3.27
 155  0.278  0.969  0.362- 225 2.45 257 2.51 351 2.52 382 2.58  68 2.82  91 2.93 179 2.99
 156  0.246  0.104  0.854- 273 2.38 258 2.49 337 2.53  36 2.73 226 2.80  84 2.93  98 2.99
 157  0.849  0.396  0.256- 296 2.42 280 2.44 231 2.49 383 2.56  93 2.67 165 2.75
 158  0.722  0.269  0.609- 238 2.34 297 2.47 317 2.49 310 2.84  94 2.84 177 2.92 398 3.04 173 3.22

 159  0.760  0.900  0.325- 384 2.44 290 2.45 229 2.51 141 2.61 355 2.63 191 3.20
 160  0.836  0.730  0.577- 240 2.46 299 2.56 364 2.57 348 2.60 112 2.89  23 3.09 183 3.15
 161  0.984  0.358  0.343- 383 2.43 300 2.46 365 2.54 181 2.88 217 2.91  74 3.10
 162  0.402  0.494  0.900- 381 2.37 323 2.44 260 2.50  49 2.85 215 2.86 170 2.94
 163  0.345  0.755  0.410- 243 2.45 382 2.51 338 2.52 236 2.54 179 2.66 187 2.76 105 3.19 116 3.27

 164  0.592  0.501  0.912- 354 2.43 305 2.48 202 2.73 215 2.82
 165  0.850  0.490  0.353- 383 2.42 263 2.44 326 2.47 231 2.57 157 2.75  93 2.79 103 3.02
 166  0.900  0.492  0.922- 264 2.47 327 2.56 196 2.71 211 2.74  20 3.13
 167  0.378  0.785  0.775- 295 2.41 339 2.45 224 2.68 208 2.77 396 2.93  60 3.23
 168  0.730  0.808  0.110- 239 2.42 298 2.43 311 2.44 152 2.90 318 2.93 379 2.96 180 2.98  32 3.07
                           175 3.19  79 3.20
 169  0.254  0.157  0.427- 234 2.39 336 2.50 257 2.54 204 2.84  41 2.94 138 3.20  66 3.23
 170  0.438  0.383  0.984- 357 2.39 381 2.48 370 2.57 215 2.83 186 2.88 162 2.94 413 2.95   2 2.99

 171  0.243  0.832  0.916- 235 2.38 287 2.45 352 2.50 208 2.82 107 2.94  60 3.22 148 3.24
 172  0.394  0.745  0.146- 345 2.43 359 2.44 294 2.49 223 2.92 115 2.99  88 3.01
 173  0.735  0.421  0.650- 310 2.44 232 2.46 378 2.54 297 2.71 190 2.97   8 2.97  47 3.11 158 3.22

 174  0.995  0.907  0.899- 303 2.46 368 2.49 203 2.70 209 2.83
 175  0.706  0.954  0.160- 311 2.43 229 2.49 253 2.61 379 2.66  29 3.13 109 3.15 168 3.19  63 3.30

 176  0.727  0.990  0.638- 230 2.40 380 2.46 254 2.49 135 2.94 390 3.08 195 3.09
 177  0.586  0.263  0.652- 310 2.42 317 2.46 270 2.46 222 2.78 158 2.92  15 3.01 190 3.24
 178  0.347  0.409  0.767- 228 2.48 277 2.52 381 2.53 293 2.62  49 2.86 146 2.96 186 3.26
 179  0.244  0.837  0.415- 236 2.44 351 2.53 382 2.53 286 2.63 163 2.66 187 2.85 155 2.99
 180  0.596  0.760  0.145- 311 2.31 271 2.43 318 2.48 223 2.89  63 2.91 168 2.98 149 3.23
 181  0.881  0.263  0.356- 383 2.35 340 2.42 245 2.45 161 2.88 217 2.92 189 3.29
 182  0.987  0.147  0.146- 265 2.46 346 2.50 328 2.56 184 2.87 217 3.02  14 3.13
 183  0.844  0.855  0.487- 384 2.37 380 2.45 364 2.52 151 2.67 240 2.72  16 3.06 160 3.15
 184  0.886  0.145  0.243- 346 2.37 340 2.45 324 2.50 217 2.86 182 2.87  29 3.04
 185  0.268  0.244  0.109- 233 2.46 292 2.49 312 2.56  42 3.07 393 3.11 197 3.18
 186  0.472  0.356  0.850- 381 2.38 370 2.53 305 2.54 222 2.84 170 2.88 133 3.10 178 3.26
 187  0.351  0.852  0.503- 382 2.45 376 2.47 360 2.60 236 2.65 163 2.76  69 2.83 179 2.85
 188  0.503  0.648  0.857- 323 2.46 244 2.50 224 2.77 202 2.78
 189  0.804  0.337  0.476- 238 2.37 383 2.56 378 2.57  74 2.82  93 2.95 353 3.03  94 3.25 181 3.29

 190  0.628  0.387  0.742- 310 2.39 305 2.43 289 2.48 173 2.97 177 3.24
 191  0.897  0.852  0.269- 384 2.31 298 2.49 282 2.49 219 3.09 159 3.20  39 3.20  44 3.24
 192  0.672  0.741  0.584- 240 2.45 272 2.52 319 2.56  16 2.93 195 2.97  78 3.21 144 3.21
 193  0.367  0.622  0.628-   9 2.75  69 2.76 108 2.78  90 2.88 116 2.90 100 3.21
 194  0.135  0.621  0.878-  20 2.72  51 2.74  67 2.81 148 2.83   4 2.89
 195  0.634  0.871  0.636-  78 2.78 102 2.81  16 2.85 192 2.97 135 3.01 176 3.09
 196  0.870  0.370  0.878- 166 2.71   8 2.74   7 2.74  61 2.79
 197  0.367  0.126  0.133-   5 2.78 137 2.82 113 2.84  42 2.87  17 2.89 185 3.18
 198  0.369  0.373  0.384-  13 2.75  31 2.78 153 2.79  66 2.82  27 2.90
 199  0.629  0.628  0.385- 149 2.67  55 2.73 132 2.76  72 2.79 144 2.81
 200  0.132  0.374  0.138-  73 2.75  81 2.76   1 2.77  65 2.84  85 2.92
 201  0.126  0.371  0.623-  82 2.66 146 2.75 124 2.76 130 2.82  12 2.93
 202  0.635  0.622  0.876- 164 2.73 188 2.78  70 2.82  99 2.89  95 3.06  48 3.38
 203  0.868  0.878  0.874- 174 2.70  40 2.72  32 2.81  56 2.91 126 2.93
 204  0.129  0.131  0.373- 140 2.66  25 2.74  33 2.81 169 2.84  41 2.96
 205  0.625  0.126  0.879- 133 2.76   6 2.83  87 2.89  22 3.00  96 3.03  38 3.07
 206  0.629  0.374  0.121-  77 2.69 145 2.73  89 2.86  97 2.92 125 3.07 111 3.21
 207  0.865  0.125  0.629- 118 2.78  46 2.79 142 2.82  30 2.89 110 2.92
 208  0.369  0.872  0.878- 167 2.77  84 2.79  57 2.79 171 2.82 107 2.85  60 3.04
 209  0.009  0.987  0.011- 154 2.83 174 2.83  14 2.87  59 2.89  28 2.92 121 2.99
 210  0.004  0.998  0.495-  46 2.70 140 2.70 147 2.85  39 2.94  25 3.13  92 3.26
 211  0.996  0.505  0.014- 166 2.74  20 2.79  53 2.81  81 2.87 127 3.02
 212  0.999  0.514  0.501-  74 2.80  82 2.85  23 2.90 136 3.05  19 3.15 128 3.18  43 3.28
 213  0.500  0.003  0.019-  87 2.68  22 2.73  71 2.81 113 2.86
 214  0.493  0.999  0.516-  91 2.76 134 2.78 102 2.81  58 2.84 106 2.93
 215  0.492  0.509  0.006-  77 2.76 164 2.82 170 2.83 162 2.86 131 2.89 139 3.16
 216  0.507  0.486  0.506-   9 2.72  47 2.82 132 2.85  31 2.86  15 2.98
 217  0.983  0.245  0.257-   1 2.73 184 2.86 161 2.91 181 2.92 182 3.02
 218  0.998  0.248  0.751- 142 2.73  18 2.84 124 2.85 118 2.90   7 3.04  10 3.21
 219  0.008  0.751  0.244-  75 2.76  44 2.87  50 2.95 143 2.96  83 2.98 191 3.09
 220  0.005  0.762  0.752- 112 2.72  51 2.73  40 2.78  76 2.82  80 2.96
 221  0.506  0.238  0.254-  13 2.66  86 2.73  89 2.79  21 2.96
 222  0.496  0.258  0.754-   6 2.74 177 2.78 133 2.82 186 2.84 122 2.95
 223  0.498  0.744  0.245- 149 2.88 180 2.89 172 2.92  88 3.01 115 3.03  63 3.25 105 3.26
 224  0.502  0.745  0.762-  78 2.68 167 2.68 188 2.77 108 2.80  57 2.89
 225  0.263  0.999  0.247- 123 2.37 155 2.45  17 2.46 137 2.47  33 2.49   5 2.55  68 2.80
 226  0.261  0.010  0.755-  60 2.36  98 2.39  36 2.40  84 2.43 114 2.55  24 2.63 156 2.80
 227  0.250  0.498  0.261-  11 2.35  65 2.40  27 2.42  85 2.42 153 2.42   3 2.50
 228  0.257  0.490  0.756- 146 2.33   4 2.36  90 2.39 100 2.42  49 2.42 178 2.48
 229  0.757  0.004  0.258-  29 2.46  37 2.48 175 2.49 159 2.51  45 2.53 141 2.57 109 2.62
 230  0.753  0.995  0.752- 135 2.36  30 2.39  96 2.40 176 2.40  56 2.40 126 2.42
 231  0.759  0.478  0.266- 111 2.41  55 2.42 157 2.49  93 2.50 145 2.50 103 2.53 165 2.57
 232  0.754  0.501  0.737-  48 2.39   8 2.43  70 2.43 120 2.45 173 2.46 104 2.51
 233  0.249  0.249  0.991- 185 2.46  73 2.48 129 2.49  42 2.49   2 2.50 150 2.56  26 2.65
 234  0.242  0.242  0.507-  12 2.38 169 2.39  66 2.40 130 2.40 138 2.42  41 2.43
 235  0.248  0.751  0.999- 171 2.38 107 2.38 148 2.39  35 2.39  34 2.41  67 2.44
 236  0.262  0.758  0.503-  69 2.41 116 2.41 179 2.44 163 2.54  52 2.60 187 2.65  64 2.94
 237  0.762  0.245  0.015-  38 2.34 125 2.34 101 2.35  61 2.37  97 2.41 117 2.56
 238  0.732  0.249  0.497- 158 2.34 110 2.36 189 2.37  54 2.40  62 2.45  94 2.47
 239  0.754  0.743  0.014-  99 2.37  32 2.42  95 2.42 168 2.42 119 2.45  79 2.49
 240  0.752  0.758  0.496- 144 2.44  16 2.44 192 2.45 160 2.46  72 2.46 151 2.62 183 2.72
 241  0.435  0.188  0.450- 414 2.07  58 2.43  21 2.47  66 2.50
 242  0.432  0.194  0.941- 413 2.08  22 2.44  42 2.48  26 2.55
 243  0.452  0.707  0.435- 416 2.06 163 2.45 132 2.46 105 2.93
 244  0.437  0.698  0.948- 415 2.06 131 2.43 107 2.49 188 2.50
 245  0.927  0.199  0.446- 410 2.07  25 2.43 181 2.45 110 2.54
 246  0.948  0.181  0.952- 409 2.07  10 2.40  61 2.48  14 2.53
 247  0.933  0.697  0.440- 412 2.07  43 2.42  23 2.44 151 2.63
 248  0.937  0.693  0.943- 411 2.06  40 2.43  20 2.47 119 2.53
 249  0.190  0.056  0.055- 385 2.08  59 2.44 150 2.47 137 2.48
 250  0.196  0.058  0.563- 386 2.04 140 2.41 114 2.58 138 2.58
 251  0.203  0.563  0.076- 387 2.02  11 2.48  35 2.49
 252  0.196  0.572  0.546- 388 2.05 100 2.49 116 2.52  64 2.57
 253  0.699  0.051  0.078- 389 2.07  87 2.45 101 2.48 175 2.61  29 2.62
 254  0.684  0.057  0.545- 390 2.03 176 2.49  62 2.53 134 2.62
 255  0.690  0.560  0.065- 391 2.06  77 2.44  79 2.46 111 2.57
 256  0.696  0.553  0.557- 392 2.05 104 2.42  47 2.47 144 2.57
 257  0.314  0.050  0.447- 386 2.08  58 2.46 155 2.51 169 2.54  91 2.64
 258  0.310  0.055  0.945- 385 2.06 156 2.49  42 2.51  84 2.54
 259  0.308  0.556  0.429- 388 2.05 116 2.47   3 2.55 153 2.70
 260  0.312  0.558  0.952- 387 2.11 131 2.47 162 2.50  67 2.52  49 2.71
 261  0.813  0.063  0.440- 390 2.07  46 2.48  37 2.54 141 2.61 110 2.63
 262  0.817  0.050  0.963- 389 2.05  14 2.47 101 2.48 126 2.48
 263  0.807  0.557  0.442- 392 2.05 165 2.44  23 2.45 144 2.45
 264  0.805  0.563  0.943- 391 2.06 166 2.47  48 2.49  95 2.59
 265  0.068  0.189  0.067- 409 2.03 182 2.46 150 2.53
 266  0.050  0.193  0.551- 410 2.04 118 2.42 130 2.42
 267  0.057  0.693  0.052- 411 2.06  83 2.43 148 2.46 127 2.48
 268  0.057  0.700  0.555- 412 2.04 128 2.47  64 2.55
 269  0.555  0.192  0.051- 413 2.04 113 2.47  97 2.50
 270  0.553  0.185  0.568- 414 2.07 177 2.46  62 2.51 106 2.52
 271  0.556  0.684  0.063- 415 2.06 115 2.41 180 2.43  99 2.45
 272  0.565  0.689  0.553- 416 2.05 108 2.38 192 2.52
 273  0.134  0.128  0.873- 154 2.37 156 2.38  10 2.41  18 2.43 129 2.47  36 2.58 150 2.63
 274  0.120  0.633  0.371-  19 2.35  50 2.35 143 2.35  43 2.38  64 2.43   3 2.47
 275  0.631  0.119  0.375-  86 2.41  37 2.42 134 2.42  21 2.45  54 2.50  45 2.59  62 2.60
 276  0.448  0.439  0.206- 407 2.04 139 2.40  89 2.59
 277  0.440  0.441  0.693- 408 2.06 178 2.52   9 2.53  15 2.54
 278  0.442  0.938  0.202- 405 2.06   5 2.45  68 2.46  71 2.51
 279  0.439  0.933  0.709- 406 2.04 102 2.47  24 2.48
 280  0.937  0.445  0.191- 403 2.06 157 2.44  81 2.50  53 2.53
 281  0.938  0.445  0.702- 404 2.08 136 2.41 124 2.46   8 2.52
 282  0.947  0.937  0.199- 401 2.06  28 2.44 109 2.45 191 2.49
 283  0.956  0.950  0.693- 402 2.04  30 2.52 147 2.52  76 2.75
 284  0.183  0.303  0.312- 393 2.06  27 2.47   1 2.49  41 2.53
 285  0.180  0.299  0.796- 394 2.04 129 2.41 146 2.42  18 2.73
 286  0.186  0.814  0.302- 395 2.07 143 2.52  75 2.61 179 2.63 123 2.75
 287  0.188  0.809  0.811- 396 2.07  80 2.44 171 2.45  60 2.50
 288  0.685  0.305  0.305- 397 2.05  54 2.41 145 2.42  93 2.45
 289  0.683  0.312  0.821- 398 2.05 133 2.47 190 2.48  38 2.59
 290  0.688  0.805  0.312- 399 2.06 159 2.45  72 2.46  63 2.47
 291  0.710  0.795  0.808- 400 2.02  78 2.37  56 2.51
 292  0.310  0.305  0.206- 393 2.06  13 2.47 185 2.49  85 2.52
 293  0.305  0.315  0.691- 394 2.06 146 2.61 122 2.62 178 2.62  12 2.65
 294  0.303  0.812  0.192- 395 2.08 172 2.49 123 2.54  68 2.57  34 2.67
 295  0.298  0.810  0.693- 396 2.09 167 2.41  60 2.49  69 2.50  52 2.77
 296  0.806  0.307  0.191- 397 2.01 157 2.42 117 2.44
 297  0.794  0.312  0.697- 398 2.08 142 2.45 158 2.47   8 2.55 173 2.71
 298  0.809  0.806  0.199- 399 2.06 168 2.43 191 2.49  44 2.51
 299  0.817  0.792  0.684- 400 2.05 112 2.44  56 2.48 160 2.56
 300  0.053  0.450  0.307- 403 2.06 161 2.46  19 2.47  65 2.53
 301  0.063  0.439  0.810- 404 2.02   7 2.45   4 2.48
 302  0.064  0.949  0.315- 401 2.05  75 2.42  33 2.59  39 2.61
 303  0.069  0.954  0.817- 402 2.09 174 2.46  36 2.48  80 2.51 154 2.78
 304  0.571  0.447  0.316- 407 2.05 145 2.50  31 2.52  55 2.60
 305  0.552  0.445  0.813- 408 2.08 190 2.43 164 2.48 186 2.54
 306  0.550  0.935  0.324- 405 2.06  63 2.48  45 2.55 105 2.76
 307  0.556  0.942  0.826- 406 2.04  57 2.37 135 2.37
 308  0.127  0.874  0.128-  83 2.39 121 2.40  75 2.42  59 2.43 123 2.48  28 2.49  34 2.56
 309  0.123  0.884  0.630-  92 2.33  80 2.37 147 2.38  76 2.40 114 2.46  52 2.47
 310  0.629  0.371  0.626- 190 2.39 177 2.42  15 2.43 173 2.44  47 2.46  94 2.48 158 2.84
 311  0.629  0.868  0.132- 180 2.31 152 2.35  63 2.36  71 2.38 175 2.43 168 2.44
 312  0.195  0.191  0.195- 393 2.06   1 2.44 137 2.47 185 2.56
 313  0.203  0.184  0.684- 394 2.07  18 2.43  98 2.54 138 2.57 130 2.58
 314  0.193  0.689  0.189- 395 2.06  83 2.52  50 2.54  35 2.69  11 2.77
 315  0.187  0.693  0.690- 396 2.01  51 2.44  52 2.63
 316  0.690  0.191  0.188- 397 2.06  29 2.40  86 2.43  97 2.51
 317  0.677  0.198  0.697- 398 2.05 177 2.46 158 2.49  96 2.50
 318  0.689  0.695  0.190- 399 2.07 149 2.43 180 2.48  79 2.49 168 2.93
 319  0.696  0.681  0.691- 400 2.09  78 2.49 192 2.56 104 2.57  70 2.59
 320  0.441  0.054  0.321- 405 2.06  17 2.45  91 2.49  21 2.63
 321  0.443  0.063  0.809- 406 2.07   6 2.44  84 2.44  22 2.47
 322  0.451  0.560  0.316- 407 2.07 153 2.45  88 2.46 132 2.56
 323  0.437  0.561  0.807- 408 2.07 162 2.44 188 2.46  90 2.53
 324  0.941  0.057  0.309- 401 2.06 141 2.44  25 2.47 184 2.50
 325  0.943  0.062  0.810- 402 2.02  30 2.48  10 2.49
 326  0.932  0.564  0.305- 403 2.05 165 2.47  43 2.48 103 2.60
 327  0.943  0.554  0.822- 404 2.07 120 2.45  20 2.53 166 2.56
 328  0.061  0.060  0.197- 401 2.05  59 2.44  33 2.55 182 2.56
 329  0.070  0.068  0.702- 402 2.09 147 2.45  36 2.48 118 2.50  18 2.92
 330  0.053  0.560  0.190- 403 2.05  50 2.40  65 2.47 127 2.49
 331  0.059  0.558  0.703- 404 2.07 128 2.48  51 2.50   4 2.53
 332  0.564  0.047  0.208- 405 2.05 113 2.55  45 2.59  86 2.59
 333  0.563  0.044  0.701- 406 2.08   6 2.40 106 2.48 135 2.51
 334  0.564  0.557  0.196- 407 2.08 115 2.43 149 2.45  77 2.45
 335  0.555  0.559  0.692- 408 2.04  70 2.47  47 2.56
 336  0.307  0.191  0.322- 393 2.06  13 2.44  17 2.46 169 2.50
 337  0.311  0.197  0.805- 394 2.05  98 2.44  26 2.50 156 2.53
 338  0.301  0.694  0.312- 395 2.04  88 2.48 163 2.52   3 2.63
 339  0.306  0.695  0.808- 396 2.07 167 2.45  90 2.51  67 2.51
 340  0.798  0.191  0.310- 397 2.09 181 2.42  37 2.45 184 2.45  54 2.69
 341  0.792  0.193  0.809- 398 2.05 142 2.43  38 2.48  96 2.51
 342  0.803  0.685  0.307- 399 2.04 151 2.46  44 2.57 103 2.65
 343  0.823  0.676  0.800- 400 2.08  40 2.51 112 2.53 120 2.59  95 2.60
 344  0.374  0.120  0.629-  58 2.34  98 2.37 122 2.38 106 2.38 138 2.40  24 2.43
 345  0.372  0.628  0.135- 115 2.40 131 2.42  88 2.42 172 2.43 139 2.44  11 2.54  35 2.61
 346  0.870  0.118  0.131- 184 2.37  14 2.41 117 2.46 182 2.50 109 2.50  29 2.51 101 2.63
 347  0.866  0.624  0.132-  44 2.33  53 2.34 127 2.40  79 2.41 119 2.42 103 2.47
 348  0.877  0.620  0.625- 112 2.38 136 2.39  23 2.41 128 2.43 104 2.44 160 2.60 120 2.67
 349  0.185  0.445  0.437- 388 2.07  82 2.44  19 2.44  27 2.50
 350  0.199  0.441  0.964- 387 2.05  49 2.43   2 2.52  73 2.63
 351  0.193  0.945  0.448- 386 2.09 140 2.49  92 2.50 155 2.52 179 2.53
 352  0.192  0.940  0.940- 385 2.07 121 2.44 154 2.46 171 2.50
 353  0.697  0.434  0.444- 392 2.05  93 2.47  55 2.56  94 2.61 189 3.03
 354  0.692  0.444  0.944- 391 2.06 164 2.43  48 2.48 125 2.50
 355  0.694  0.947  0.425- 390 2.05  16 2.46 134 2.48 159 2.63
 356  0.698  0.945  0.954- 389 2.06 152 2.44  87 2.46 126 2.50
 357  0.428  0.299  0.065- 413 2.05 170 2.39  89 2.50
 358  0.436  0.302  0.564- 414 2.06  15 2.45 122 2.49  66 2.58
 359  0.447  0.812  0.062- 415 2.05 172 2.44 107 2.46  71 2.63
 360  0.446  0.800  0.571- 416 2.10 102 2.48  69 2.52 187 2.60 108 2.76
 361  0.945  0.299  0.059- 409 2.06  81 2.46  61 2.49 117 2.59
 362  0.931  0.313  0.561- 410 2.05  74 2.48 124 2.48
 363  0.933  0.805  0.058- 411 2.04  28 2.44 119 2.59  32 2.61
 364  0.933  0.808  0.558- 412 2.06  76 2.44 183 2.52 160 2.57
 365  0.045  0.317  0.443- 410 2.08  82 2.48 161 2.54  41 2.56  74 3.03
 366  0.066  0.297  0.946- 409 2.07   7 2.44  73 2.47 129 2.62
 367  0.050  0.814  0.441- 412 2.08 143 2.43  92 2.46  39 2.46
 368  0.055  0.809  0.941- 411 2.06 121 2.44 148 2.49 174 2.49
 369  0.557  0.295  0.448- 414 2.03  31 2.46  94 2.46
 370  0.539  0.319  0.948- 413 2.08 133 2.41 186 2.53 170 2.57
 371  0.564  0.824  0.457- 416 2.04  72 2.51 105 2.51  16 3.02
 372  0.567  0.796  0.949- 415 2.05 152 2.45  57 2.46  99 2.55
 373  0.320  0.444  0.072- 387 2.08 139 2.42  85 2.53   2 2.53
 374  0.299  0.448  0.555- 388 2.07  12 2.45   9 2.46 100 2.49
 375  0.305  0.934  0.059- 385 2.03   5 2.45  34 2.50
 376  0.305  0.938  0.573- 386 2.02 187 2.47  24 2.58 114 2.63
 377  0.806  0.444  0.057- 391 2.06  53 2.42 125 2.43 111 2.45
 378  0.814  0.434  0.555- 392 2.07 136 2.47 173 2.54 189 2.57  74 2.89
 379  0.804  0.928  0.079- 389 2.04  32 2.54 109 2.60 175 2.66 168 2.96
 380  0.798  0.944  0.552- 390 2.07  46 2.45 183 2.45 176 2.46  16 2.79
 381  0.366  0.385  0.887- 162 2.37 186 2.38  26 2.47 170 2.48   2 2.49 178 2.53  49 2.55
 382  0.358  0.874  0.385-  68 2.40  91 2.42 187 2.45 163 2.51 105 2.52 179 2.53 155 2.58
 383  0.871  0.376  0.377- 181 2.35  93 2.39  74 2.40 165 2.42 161 2.43 157 2.56 189 2.56
 384  0.865  0.876  0.375- 191 2.31  39 2.37 183 2.37 141 2.42 159 2.44 151 2.47
 385  0.251  0.995  0.001- 375 2.03 258 2.06 352 2.07 249 2.08
 386  0.255  0.997  0.511- 376 2.02 250 2.04 257 2.08 351 2.09 140 2.93 114 3.08
 387  0.256  0.502  0.019- 251 2.02 350 2.05 373 2.08 260 2.11   2 3.04
 388  0.247  0.505  0.490- 259 2.05 252 2.05 349 2.07 374 2.07 116 2.98 100 3.10
 389  0.757  0.992  0.019- 379 2.04 262 2.05 356 2.06 253 2.07  87 2.95 101 2.97 126 3.11
 390  0.746  0.004  0.488- 254 2.03 355 2.05 261 2.07 380 2.07  46 2.96 134 3.01 176 3.08  16 3.10

 391  0.748  0.505  0.002- 377 2.06 264 2.06 255 2.06 354 2.06  48 3.03 125 3.06 111 3.06
 392  0.754  0.494  0.500- 353 2.05 256 2.05 263 2.05 378 2.07 144 3.12
 393  0.249  0.246  0.260- 292 2.06 284 2.06 336 2.06 312 2.06  13 2.98   1 2.99 185 3.11
 394  0.250  0.250  0.745- 285 2.04 337 2.05 293 2.06 313 2.07  98 3.01  18 3.02 146 3.03
 395  0.246  0.751  0.250- 338 2.04 314 2.06 286 2.07 294 2.08
 396  0.242  0.748  0.751- 315 2.01 339 2.07 287 2.07 295 2.09 167 2.93  60 3.10
 397  0.746  0.251  0.246- 296 2.01 288 2.05 316 2.06 340 2.09  54 3.13
 398  0.734  0.255  0.757- 289 2.05 341 2.05 317 2.05 297 2.08 142 2.93 158 3.04  96 3.08  38 3.09

 399  0.747  0.748  0.254- 342 2.04 298 2.06 290 2.06 318 2.07  44 2.99
 400  0.761  0.737  0.746- 291 2.02 299 2.05 343 2.08 319 2.09  78 2.86 112 2.96  56 2.99
 401  0.003  0.001  0.254- 328 2.05 302 2.05 324 2.06 282 2.06
 402  0.007  0.009  0.756- 325 2.02 283 2.04 303 2.09 329 2.09 147 2.95  30 3.00  36 3.08
 403  0.992  0.506  0.249- 326 2.05 330 2.05 280 2.06 300 2.06  65 3.09
 404  0.001  0.499  0.761- 301 2.02 331 2.07 327 2.07 281 2.08   4 3.06
 405  0.498  0.995  0.263- 332 2.05 320 2.06 306 2.06 278 2.06  45 3.09
 406  0.499  0.992  0.761- 279 2.04 307 2.04 321 2.07 333 2.08   6 2.94 135 2.99
 407  0.508  0.499  0.258- 276 2.04 304 2.05 322 2.07 334 2.08
 408  0.497  0.502  0.750- 335 2.04 277 2.06 323 2.07 305 2.08
 409  0.008  0.241  0.007- 265 2.03 361 2.06 246 2.07 366 2.07  61 3.06
 410  0.989  0.256  0.503- 266 2.04 362 2.05 245 2.07 365 2.08
 411  0.995  0.753  0.999- 363 2.04 267 2.06 248 2.06 368 2.06 119 3.03 148 3.05
 412  0.993  0.753  0.499- 268 2.04 364 2.06 247 2.07 367 2.08
 413  0.489  0.249  0.003- 269 2.04 357 2.05 242 2.08 370 2.08 170 2.95
 414  0.497  0.243  0.508- 369 2.03 358 2.06 270 2.07 241 2.07  66 3.10
 415  0.501  0.748  0.007- 359 2.05 372 2.05 271 2.06 244 2.06 107 3.03  99 3.10
 416  0.508  0.755  0.503- 371 2.04 272 2.05 243 2.06 360 2.10 108 3.09
 

IMPORTANT INFORMATION: All symmetrisations will be switched off!
NOSYMM: (Re-)initialisation of all symmetry stuff for point group C_1.

 
 
 KPOINTS: Title                                   

Automatic generation of k-mesh.
Space group operators:
 irot       det(A)        alpha          n_x          n_y          n_z        tau_x        tau_y        tau_z
    1     1.000000     0.000000     1.000000     0.000000     0.000000     0.000000     0.000000     0.000000
 
 Subroutine IBZKPT returns following result:
 ===========================================
 
 Found      1 irreducible k-points:
 
 Following reciprocal coordinates:
            Coordinates               Weight
  0.000000  0.000000  0.000000      1.000000
 
 Following cartesian coordinates:
            Coordinates               Weight
  0.000000  0.000000  0.000000      1.000000
 


--------------------------------------------------------------------------------------------------------




 Dimension of arrays:
   k-points           NKPTS =      1   k-points in BZ     NKDIM =      1   number of bands    NBANDS=   1008
   number of dos      NEDOS =   3001   number of ions     NIONS =    416
   non local maximal  LDIM  =      5   non local SUM 2l+1 LMDIM =     13
   total plane-waves  NPLWV = 592704
   max r-space proj   IRMAX =   1611   max aug-charges    IRDMAX=  32347
   dimension x,y,z NGX =    84 NGY =   84 NGZ =   84
   dimension x,y,z NGXF=   168 NGYF=  168 NGZF=  168
   support grid    NGXF=   336 NGYF=  336 NGZF=  336
   ions per type =             192  32 160  32
   NGX,Y,Z   is equivalent  to a cutoff of   6.83,  6.83,  6.83 a.u.
   NGXF,Y,Z  is equivalent  to a cutoff of  13.67, 13.67, 13.67 a.u.

 SYSTEM =  LTO                                     
 POSCAR =  Li192 P32 S160 I32                      

 Startparameter for this run:
   NWRITE =      2    write-flag & timer
   PREC   = normal    normal or accurate (medium, high low for compatibility)
   ISTART =      0    job   : 0-new  1-cont  2-samecut
   ICHARG =      2    charge: 1-file 2-atom 10-const
   ISPIN  =      1    spin polarized calculation?
   LNONCOLLINEAR =      F non collinear calculations
   LSORBIT =      F    spin-orbit coupling
   INIWAV =      1    electr: 0-lowe 1-rand  2-diag
   LASPH  =      T    aspherical Exc in radial PAW
   METAGGA=      F    non-selfconsistent MetaGGA calc.

 Electronic Relaxation 1
   ENCUT  =  280.0 eV  20.58 Ry    4.54 a.u.  27.88 27.88 27.88*2*pi/ulx,y,z
   ENINI  =  280.0     initial cutoff
   ENAUG  =  370.1 eV  augmentation charge cutoff
   NELM   =     60;   NELMIN=  4; NELMDL=  0     # of ELM steps 
   EDIFF  = 0.1E-03   stopping-criterion for ELM
   LREAL  =      T    real-space projection
   NLSPLINE    = F    spline interpolate recip. space projectors
   LCOMPAT=      F    compatible to vasp.4.4
   GGA_COMPAT  = T    GGA compatible to vasp.4.4-vasp.4.6
   LMAXPAW     = -100 max onsite density
   LMAXMIX     =    4 max onsite mixed and CHGCAR
   VOSKOWN=      0    Vosko Wilk Nusair interpolation
   ROPT   =   -0.00010  -0.00010  -0.00010  -0.00010
 Ionic relaxation
   EDIFFG = -.5E-01   stopping-criterion for IOM
   NSW    =   1000    number of steps for IOM
   NBLOCK =      1;   KBLOCK =   1000    inner block; outer block 
   IBRION =      2    ionic relax: 0-MD 1-quasi-New 2-CG
   NFREE  =      1    steps in history (QN), initial steepest desc. (CG)
   ISIF   =      2    stress and relaxation
   IWAVPR =     11    prediction:  0-non 1-charg 2-wave 3-comb
   ISYM   =      0    0-nonsym 1-usesym 2-fastsym
   LCORR  =      T    Harris-Foulkes like correction to forces

   POTIM  = 0.5000    time-step for ionic-motion
   TEIN   =    0.0    initial temperature
   TEBEG  =    0.0;   TEEND  =   0.0 temperature during run
   SMASS  =  -3.00    Nose mass-parameter (am)
   estimated Nose-frequenzy (Omega)   =  0.10E-29 period in steps =****** mass=  -0.954E-26a.u.
   SCALEE = 1.0000    scale energy and forces
   NPACO  =    256;   APACO  = 16.0  distance and # of slots for P.C.
   PSTRESS=    0.0 pullay stress

  Mass of Ions in am
   POMASS =   7.01126.90 32.07 30.97
  Ionic Valenz
   ZVAL   =   1.00  7.00  6.00  5.00
  Atomic Wigner-Seitz radii
   RWIGS  =  -1.00 -1.00 -1.00 -1.00
  virtual crystal weights 
   VCA    =   1.00  1.00  1.00  1.00
   NELECT =    1536.0000    total number of electrons
   NUPDOWN=      -1.0000    fix difference up-down

 DOS related values:
   EMIN   =  10.00;   EMAX   =-10.00  energy-range for DOS
   EFERMI =   0.00
   ISMEAR =     0;   SIGMA  =   0.01  broadening in eV -4-tet -1-fermi 0-gaus

 Electronic relaxation 2 (details)
   IALGO  =     68    algorithm
   LDIAG  =      T    sub-space diagonalisation (order eigenvalues)
   LSUBROT=      F    optimize rotation matrix (better conditioning)
   TURBO    =      0    0=normal 1=particle mesh
   IRESTART =      0    0=no restart 2=restart with 2 vectors
   NREBOOT  =      0    no. of reboots
   NMIN     =      0    reboot dimension
   EREF     =   0.00    reference energy to select bands
   IMIX   =      4    mixing-type and parameters
     AMIX     =   0.40;   BMIX     =  1.00
     AMIX_MAG =   1.60;   BMIX_MAG =  1.00
     AMIN     =   0.10
     WC   =   100.;   INIMIX=   1;  MIXPRE=   1;  MAXMIX=  40

 Intra band minimization:
   WEIMIN = 0.0010     energy-eigenvalue tresh-hold
   EBREAK =  0.25E-07  absolut break condition
   DEPER  =   0.30     relativ break condition  

   TIME   =   0.40     timestep for ELM

  volume/ion in A,a.u.               =      20.51       138.39
  Fermi-wavevector in a.u.,A,eV,Ry     =   0.924428  1.746916 11.627092  0.854567
  Thomas-Fermi vector in A             =   2.050173
 
 Write flags
   LWAVE        =      F    write WAVECAR
   LDOWNSAMPLE  =      F    k-point downsampling of WAVECAR
   LCHARG       =      F    write CHGCAR
   LVTOT        =      F    write LOCPOT, total local potential
   LVHAR        =      F    write LOCPOT, Hartree potential only
   LELF         =      F    write electronic localiz. function (ELF)
   LORBIT       =     11    0 simple, 1 ext, 2 COOP (PROOUT), +10 PAW based schemes


 Dipole corrections
   LMONO  =      F    monopole corrections only (constant potential shift)
   LDIPOL =      F    correct potential (dipole corrections)
   IDIPOL =      0    1-x, 2-y, 3-z, 4-all directions 
   EPSILON=  1.0000000 bulk dielectric constant

 Exchange correlation treatment:
   GGA     =    PS    GGA type
   LEXCH   =    14    internal setting for exchange type
   VOSKOWN=      0    Vosko Wilk Nusair interpolation
   LHFCALC =     F    Hartree Fock is set to
   LHFONE  =     F    Hartree Fock one center treatment
   AEXX    =    0.0000 exact exchange contribution

 Linear response parameters
   LEPSILON=     F    determine dielectric tensor
   LRPA    =     F    only Hartree local field effects (RPA)
   LNABLA  =     F    use nabla operator in PAW spheres
   LVEL    =     F    velocity operator in full k-point grid
   LINTERFAST=   F  fast interpolation
   KINTER  =     0    interpolate to denser k-point grid
   CSHIFT  =0.1000    complex shift for real part using Kramers Kronig
   OMEGAMAX=  -1.0    maximum frequency
   DEG_THRESHOLD= 0.2000000E-02 threshold for treating states as degnerate
   RTIME   =   -0.100 relaxation time in fs
  (WPLASMAI=    0.000 imaginary part of plasma frequency in eV, 0.658/RTIME)
   DFIELD  = 0.0000000 0.0000000 0.0000000 field for delta impulse in time
 
 Orbital magnetization related:
   ORBITALMAG=     F  switch on orbital magnetization
   LCHIMAG   =     F  perturbation theory with respect to B field
   DQ        =  0.001000  dq finite difference perturbation B field
   LLRAUG    =     F  two centre corrections for induced B field



--------------------------------------------------------------------------------------------------------


 conjugate gradient relaxation of ions
 charge density and potential will be updated during run
 non-spin polarized calculation
 RMM-DIIS sequential band-by-band and
  variant of blocked Davidson during initial phase
 perform sub-space diagonalisation
    before iterative eigenvector-optimisation
 modified Broyden-mixing scheme, WC =      100.0
 initial mixing is a Kerker type mixing with AMIX =  0.4000 and BMIX =      1.0000
 Hartree-type preconditioning will be used
 using additional bands          240
 real space projection scheme for non local part
 use partial core corrections
 calculate Harris-corrections to forces 
   (improved forces if not selfconsistent)
 use gradient corrections 
 use of overlap-Matrix (Vanderbilt PP)
 Gauss-broadening in eV      SIGMA  =   0.01


--------------------------------------------------------------------------------------------------------


  energy-cutoff  :      280.00
  volume of cell :     8530.93
      direct lattice vectors                 reciprocal lattice vectors
    20.433000000  0.000000000  0.000000000     0.048940439  0.000000000  0.000000000
     0.000000000 20.433000000  0.000000000     0.000000000  0.048940439  0.000000000
     0.000000000  0.000000000 20.433000000     0.000000000  0.000000000  0.048940439

  length of vectors
    20.433000000 20.433000000 20.433000000     0.048940439  0.048940439  0.048940439


 
 k-points in units of 2pi/SCALE and weight: Title                                   
   0.00000000  0.00000000  0.00000000       1.000
 
 k-points in reciprocal lattice and weights: Title                                   
   0.00000000  0.00000000  0.00000000       1.000
 
 position of ions in fractional coordinates (direct lattice) 
   0.10942926  0.26976629  0.22154737
   0.29285404  0.36286858  0.98224920
   0.22881269  0.59053445  0.33868645
   0.14819386  0.52059447  0.77992761
   0.34647914  0.99289434  0.15415901
   0.53419011  0.13149487  0.77465172
   0.00114450  0.34982817  0.86013891
   0.83225522  0.41398410  0.75745965
   0.40358012  0.49800914  0.58941965
   0.01675718  0.14203781  0.86517259
   0.26755569  0.57630433  0.17772810
   0.25574988  0.33775227  0.57260897
   0.38763089  0.27428047  0.29399096
   0.91290775  0.08841567  0.02558430
   0.51165130  0.38325128  0.60940374
   0.69585617  0.86269879  0.51123634
   0.34022934  0.08902940  0.26709677
   0.12001005  0.18340872  0.76929278
   0.10531299  0.52081135  0.39046204
   0.00879385  0.59949219  0.91653469
   0.51575266  0.14873519  0.36800890
   0.48790665  0.09002957  0.91825160
   0.89230119  0.60825898  0.50862018
   0.35376996  0.00825167  0.66609796
   0.99821312  0.11650031  0.39747440
   0.33986366  0.26708093  0.90013014
   0.23997030  0.40693425  0.33495963
   0.00671438  0.88331550  0.10982339
   0.75947153  0.09588816  0.18140095
   0.86356450  0.02376691  0.72759288
   0.50212038  0.39222817  0.40276715
   0.82482973  0.83629824  0.99758850
   0.15120051  0.03366258  0.27912363
   0.23651366  0.83491817  0.08146641
   0.26385215  0.66813228  0.08021028
   0.15132210  0.03787131  0.78658284
   0.74152866  0.09005405  0.34173240
   0.72956134  0.23059349  0.90567724
   0.97752984  0.89861526  0.39469466
   0.90639563  0.75380050  0.84590884
   0.15668195  0.26285948  0.42666224
   0.33263895  0.16111457  0.00196509
   0.00458541  0.62264474  0.38274160
   0.87972048  0.70573711  0.20947762
   0.64244185  0.01583029  0.30205275
   0.88130766  0.02809040  0.53401555
   0.60543931  0.48648839  0.60218907
   0.74767358  0.50297660  0.85400963
   0.26944465  0.46241486  0.87059363
   0.10148068  0.64202829  0.25797313
   0.09329093  0.66222149  0.75795780
   0.19577071  0.79023052  0.60603282
   0.88965169  0.51571064  0.10128364
   0.69640868  0.22176571  0.38778133
   0.67714917  0.50941859  0.34551250
   0.78282319  0.88121380  0.76007393
   0.50191903  0.84605725  0.86099024
   0.39693418  0.09885213  0.51902400
   0.10800438  0.99021297  0.11207054
   0.26554991  0.89590537  0.77338443
   0.86630312  0.26937832  0.97025307
   0.64851699  0.16308083  0.49301528
   0.60479652  0.86126199  0.24484799
   0.15142202  0.66917919  0.48002688
   0.13940237  0.48229986  0.22473293
   0.35135280  0.27221063  0.47603538
   0.25918061  0.66429583  0.91796446
   0.35171141  0.89637106  0.27017357
   0.33594537  0.74875176  0.59415761
   0.66051132  0.57391242  0.74883388
   0.51990788  0.90425533  0.11283334
   0.65941503  0.75629722  0.41849845
   0.16031090  0.32890586  0.01439384
   0.92712914  0.40011894  0.47739683
   0.08633013  0.86123122  0.23823808
   0.01401840  0.84098414  0.63967360
   0.59290251  0.49819819  0.09520241
   0.62658431  0.77349094  0.73038815
   0.75718084  0.65414853  0.09759668
   0.10725160  0.86380875  0.74330998
   0.00309897  0.39555236  0.10166519
   0.09150479  0.41056548  0.50319248
   0.10656512  0.75902212  0.13686127
   0.34499846  0.00085631  0.83861214
   0.26287226  0.41489327  0.17785363
   0.60781213  0.15190371  0.26429487
   0.62310334  0.03387464  0.98615172
   0.39182386  0.64149359  0.25128609
   0.50032463  0.33432106  0.15757294
   0.32626706  0.58480060  0.75762961
   0.41284717  0.97600532  0.40994279
   0.11207242  0.88354273  0.51645755
   0.75818988  0.38883818  0.34966088
   0.64944489  0.33698958  0.51169708
   0.76756888  0.68077949  0.91433684
   0.71732285  0.10565563  0.76569052
   0.66342923  0.24183350  0.07935125
   0.30071877  0.11407591  0.71857756
   0.64657735  0.70792572  0.98790875
   0.24968336  0.51841129  0.64126878
   0.77937758  0.13431678  0.04102926
   0.50204575  0.89950277  0.61137044
   0.82581712  0.57801801  0.23624840
   0.76511220  0.58510594  0.64771563
   0.47426815  0.83434647  0.37358557
   0.48765576  0.09573378  0.62194218
   0.35906427  0.78353031  0.98472940
   0.48478839  0.68928490  0.63793358
   0.85113270  0.00326346  0.17059825
   0.81935824  0.17485904  0.50274921
   0.74006535  0.48173175  0.15006529
   0.89525643  0.70443433  0.70294244
   0.50271518  0.10422864  0.11533403
   0.20688457  0.96784476  0.65092957
   0.48891165  0.63363229  0.14549645
   0.28983080  0.64301873  0.51041272
   0.84716929  0.23370303  0.10618747
   0.99728505  0.15063981  0.64873404
   0.86285485  0.70080517  0.04199597
   0.85397255  0.56786754  0.74260352
   0.11406542  0.88529322  0.01148240
   0.39478057  0.23124872  0.65468948
   0.21705016  0.90083471  0.20466383
   0.99688173  0.35057299  0.65653546
   0.73635686  0.35668410  0.01714260
   0.77457728  0.98695178  0.86824812
   0.98141996  0.61739903  0.10971300
   0.99578562  0.61750482  0.61805508
   0.17016427  0.24005206  0.89823399
   0.15313790  0.24145058  0.58401958
   0.39579511  0.61202473  0.02028155
   0.50278596  0.59843896  0.42329391
   0.58404087  0.25389294  0.85972882
   0.60649584  0.02785658  0.44689724
   0.64182121  0.96372562  0.75041764
   0.89594396  0.50558995  0.60913639
   0.23893788  0.08274841  0.16336050
   0.27271507  0.15677790  0.58307117
   0.39766264  0.51213926  0.12934408
   0.12549414  0.04396558  0.47018789
   0.84942994  0.98891980  0.34255654
   0.87007074  0.22395685  0.72447362
   0.09932467  0.74533295  0.35686425
   0.73061387  0.64253961  0.47608818
   0.66255696  0.40549888  0.24670092
   0.20861029  0.39084629  0.72700412
   0.05474847  0.97805492  0.62341333
   0.13823395  0.72534220  0.96914056
   0.60268049  0.65087343  0.25888295
   0.16355974  0.15717341  0.99505148
   0.83121397  0.76197966  0.39518769
   0.63839535  0.86354459  0.01773629
   0.35149444  0.49315701  0.32126523
   0.10958419  0.02616979  0.92470869
   0.27819967  0.96892286  0.36180708
   0.24588394  0.10364802  0.85396729
   0.84861838  0.39640071  0.25564573
   0.72221887  0.26947649  0.60907759
   0.75966329  0.90002877  0.32474313
   0.83608013  0.73044675  0.57728642
   0.98374919  0.35846445  0.34268228
   0.40206602  0.49375940  0.89970424
   0.34471057  0.75471168  0.40976719
   0.59237780  0.50101659  0.91232523
   0.84959761  0.48991677  0.35272529
   0.89999386  0.49163871  0.92161680
   0.37804838  0.78468766  0.77529164
   0.72989322  0.80786768  0.11048906
   0.25443425  0.15742607  0.42730331
   0.43782027  0.38285267  0.98425822
   0.24268339  0.83159902  0.91558339
   0.39409823  0.74491846  0.14625239
   0.73463296  0.42108590  0.64967244
   0.99471943  0.90708473  0.89898029
   0.70556344  0.95411743  0.15970763
   0.72732320  0.99045926  0.63759036
   0.58627593  0.26343911  0.65228412
   0.34694194  0.40900107  0.76684451
   0.24383830  0.83690403  0.41522742
   0.59629799  0.76011118  0.14474079
   0.88085074  0.26301020  0.35569774
   0.98719964  0.14726906  0.14591219
   0.84356212  0.85463694  0.48664926
   0.88593771  0.14475249  0.24302712
   0.26844263  0.24401268  0.10947526
   0.47243051  0.35602484  0.85025766
   0.35141101  0.85194707  0.50295762
   0.50264643  0.64840355  0.85744606
   0.80446593  0.33723074  0.47617112
   0.62766856  0.38711053  0.74219124
   0.89744890  0.85156771  0.26885402
   0.67228839  0.74118906  0.58373836
   0.36693377  0.62183127  0.62793708
   0.13453839  0.62096030  0.87847491
   0.63424551  0.87134223  0.63601201
   0.86964061  0.37007663  0.87845800
   0.36671377  0.12595529  0.13338444
   0.36898564  0.37295879  0.38351347
   0.62881331  0.62757118  0.38496676
   0.13170364  0.37397106  0.13780278
   0.12576024  0.37128687  0.62262058
   0.63510181  0.62241979  0.87566693
   0.86818877  0.87828977  0.87423292
   0.12917350  0.13103220  0.37342099
   0.62459493  0.12631269  0.87933039
   0.62949791  0.37421173  0.12103835
   0.86499229  0.12497791  0.62854739
   0.36879246  0.87248883  0.87791103
   0.00901529  0.98700704  0.01119584
   0.00381286  0.99846213  0.49499289
   0.99586338  0.50537180  0.01443014
   0.99858627  0.51433154  0.50124599
   0.49988793  0.00287843  0.01904624
   0.49332837  0.99878548  0.51630230
   0.49156003  0.50874186  0.00634681
   0.50654953  0.48628180  0.50618233
   0.98272632  0.24512297  0.25674521
   0.99846912  0.24849153  0.75143003
   0.00817115  0.75115613  0.24446064
   0.00474225  0.76186225  0.75240096
   0.50572929  0.23764296  0.25400795
   0.49579675  0.25836239  0.75399933
   0.49777742  0.74374396  0.24462971
   0.50248383  0.74477525  0.76223090
   0.26326374  0.99857595  0.24679789
   0.26095378  0.01008449  0.75510124
   0.24982765  0.49841344  0.26075663
   0.25719450  0.49012412  0.75588839
   0.75748484  0.00351441  0.25832057
   0.75307698  0.99467380  0.75218723
   0.75908608  0.47808406  0.26623815
   0.75414308  0.50134739  0.73704314
   0.24871474  0.24885592  0.99071972
   0.24200074  0.24237127  0.50695404
   0.24810802  0.75099364  0.99916891
   0.26245724  0.75764800  0.50260318
   0.76215319  0.24496712  0.01467204
   0.73152561  0.24944914  0.49662060
   0.75392845  0.74301157  0.01416946
   0.75192567  0.75823353  0.49566486
   0.43547777  0.18772405  0.44964617
   0.43216525  0.19352874  0.94058980
   0.45151470  0.70693565  0.43519166
   0.43703040  0.69751202  0.94826591
   0.92742001  0.19885327  0.44591671
   0.94773482  0.18139848  0.95191808
   0.93293497  0.69740953  0.44038289
   0.93661836  0.69259477  0.94300633
   0.18998909  0.05586118  0.05532738
   0.19612633  0.05823817  0.56346294
   0.20274011  0.56291107  0.07608067
   0.19588952  0.57160443  0.54563529
   0.69871899  0.05142186  0.07757633
   0.68364458  0.05651963  0.54527318
   0.69041541  0.55969101  0.06454047
   0.69610763  0.55268105  0.55721116
   0.31370922  0.05002339  0.44715794
   0.31041245  0.05451045  0.94511328
   0.30783016  0.55563306  0.42895401
   0.31187146  0.55805572  0.95211797
   0.81279419  0.06277554  0.43995750
   0.81727134  0.04978275  0.96289285
   0.80721070  0.55654212  0.44214630
   0.80485915  0.56321162  0.94299110
   0.06817400  0.18894462  0.06741573
   0.04990602  0.19300888  0.55120586
   0.05665017  0.69318993  0.05154998
   0.05688102  0.70029663  0.55492730
   0.55533205  0.19185144  0.05090485
   0.55349526  0.18461679  0.56757058
   0.55608105  0.68392157  0.06261212
   0.56485275  0.68894023  0.55330853
   0.13375474  0.12756525  0.87344547
   0.12017920  0.63300178  0.37103747
   0.63141615  0.11872623  0.37496351
   0.44779739  0.43886183  0.20635449
   0.44040063  0.44103595  0.69320226
   0.44186776  0.93765506  0.20167409
   0.43876559  0.93282788  0.70860680
   0.93658247  0.44532938  0.19147023
   0.93761671  0.44536165  0.70167755
   0.94739972  0.93737898  0.19851114
   0.95614172  0.95048126  0.69254408
   0.18346313  0.30254645  0.31248511
   0.18035799  0.29919693  0.79649639
   0.18632282  0.81380781  0.30241707
   0.18817869  0.80887250  0.81141631
   0.68483980  0.30489653  0.30490748
   0.68259153  0.31249498  0.82094763
   0.68794564  0.80493165  0.31220066
   0.70998155  0.79517322  0.80838124
   0.31034198  0.30464239  0.20633969
   0.30464149  0.31485481  0.69061348
   0.30277433  0.81156762  0.19155767
   0.29766852  0.81048773  0.69282984
   0.80551714  0.30668123  0.19104830
   0.79359420  0.31203628  0.69701367
   0.80879543  0.80568618  0.19927959
   0.81662919  0.79245485  0.68449481
   0.05315710  0.45008717  0.30742748
   0.06308161  0.43938402  0.80992625
   0.06390418  0.94859368  0.31462855
   0.06858461  0.95438190  0.81656902
   0.57057905  0.44675288  0.31612558
   0.55150585  0.44456831  0.81317796
   0.55026068  0.93471749  0.32425533
   0.55636338  0.94217504  0.82589037
   0.12676802  0.87404371  0.12773933
   0.12293903  0.88394563  0.63007203
   0.62874526  0.37077805  0.62626731
   0.62888864  0.86778181  0.13210567
   0.19469787  0.19076174  0.19528038
   0.20344796  0.18362914  0.68430636
   0.19349143  0.68943508  0.18943142
   0.18651377  0.69323399  0.69014907
   0.69008861  0.19056140  0.18778690
   0.67678024  0.19800041  0.69662854
   0.68880116  0.69539157  0.18972319
   0.69568724  0.68096800  0.69092053
   0.44118667  0.05445844  0.32138839
   0.44315354  0.06250707  0.80919024
   0.45128720  0.55962850  0.31615045
   0.43736267  0.56058969  0.80721804
   0.94096242  0.05748561  0.30894457
   0.94341450  0.06190558  0.81035675
   0.93204966  0.56446975  0.30467026
   0.94282593  0.55444735  0.82222784
   0.06100084  0.05988955  0.19691270
   0.07004760  0.06778179  0.70176280
   0.05297541  0.55957532  0.18980984
   0.05890872  0.55844416  0.70306543
   0.56397330  0.04712909  0.20778168
   0.56291708  0.04391000  0.70147340
   0.56425091  0.55680563  0.19562147
   0.55512928  0.55880140  0.69152599
   0.30663857  0.19081030  0.32153057
   0.31127839  0.19666338  0.80451365
   0.30074032  0.69409006  0.31179945
   0.30596298  0.69492446  0.80837895
   0.79821882  0.19097856  0.31049156
   0.79248911  0.19270996  0.80916135
   0.80327517  0.68465571  0.30692465
   0.82275468  0.67646139  0.79953057
   0.37398768  0.11970729  0.62914103
   0.37208366  0.62839433  0.13508813
   0.86955696  0.11786461  0.13118127
   0.86593702  0.62353486  0.13155747
   0.87691442  0.61993647  0.62477925
   0.18482039  0.44499719  0.43729611
   0.19934580  0.44094611  0.96401037
   0.19291845  0.94478648  0.44764874
   0.19238221  0.94024022  0.93969868
   0.69675121  0.43410617  0.44357155
   0.69197977  0.44448134  0.94434221
   0.69362896  0.94660635  0.42490756
   0.69764014  0.94480354  0.95364332
   0.42823630  0.29908972  0.06526041
   0.43645678  0.30162740  0.56422442
   0.44652136  0.81157885  0.06227543
   0.44564022  0.80008859  0.57095855
   0.94477832  0.29925027  0.05880886
   0.93138326  0.31277620  0.56141001
   0.93309625  0.80512619  0.05763852
   0.93298744  0.80849367  0.55787897
   0.04474396  0.31660635  0.44265558
   0.06586731  0.29741659  0.94579958
   0.04989689  0.81383657  0.44054282
   0.05467982  0.80937774  0.94067313
   0.55655989  0.29475297  0.44752451
   0.53928203  0.31852158  0.94765485
   0.56392965  0.82356491  0.45717441
   0.56722603  0.79590100  0.94872776
   0.31983887  0.44363520  0.07198111
   0.29939329  0.44791715  0.55531091
   0.30451734  0.93407510  0.05873900
   0.30477793  0.93845760  0.57298949
   0.80602869  0.44425192  0.05738413
   0.81440772  0.43425898  0.55541875
   0.80448888  0.92781526  0.07927302
   0.79794108  0.94405285  0.55199881
   0.36562426  0.38455482  0.88662581
   0.35803535  0.87412086  0.38536546
   0.87109619  0.37580264  0.37709965
   0.86543156  0.87608799  0.37464870
   0.25126806  0.99525155  0.00134852
   0.25455548  0.99686148  0.51068013
   0.25617829  0.50242492  0.01896432
   0.24682006  0.50522190  0.49024374
   0.75719902  0.99247442  0.01940158
   0.74601394  0.00379798  0.48839025
   0.74789378  0.50519197  0.00232548
   0.75408539  0.49378401  0.50002009
   0.24862488  0.24613623  0.26033356
   0.25012621  0.24977254  0.74531532
   0.24615379  0.75074430  0.25009336
   0.24176265  0.74780567  0.75090753
   0.74585878  0.25111896  0.24605820
   0.73380480  0.25502876  0.75665995
   0.74699324  0.74773563  0.25380091
   0.76072476  0.73698722  0.74633206
   0.00316152  0.00075261  0.25379882
   0.00670602  0.00879611  0.75616253
   0.99221890  0.50598211  0.24938914
   0.00112977  0.49895581  0.76085931
   0.49797109  0.99538310  0.26276650
   0.49880706  0.99245177  0.76146806
   0.50813468  0.49907835  0.25791819
   0.49709156  0.50230791  0.74965640
   0.00837570  0.24081608  0.00719350
   0.98920603  0.25570076  0.50277850
   0.99473418  0.75305006  0.99909302
   0.99336888  0.75309918  0.49924988
   0.48947206  0.24944108  0.00328268
   0.49666957  0.24320103  0.50795667
   0.50143414  0.74806298  0.00740796
   0.50810850  0.75454267  0.50335211
 
 position of ions in cartesian coordinates  (Angst):
   2.23596812  5.51213458  4.52687742
   5.98388653  7.41449373 20.07029795
   4.67532973 12.06639041  6.92038026
   3.02804511 10.63730680 15.93626095
   7.07960835 20.28781004  3.14993099
  10.91510651  2.68683462 15.82845851
   0.02338558  7.14803910 17.57521838
  17.00547095  8.45893715 15.47717313
[...]


--------------------------------------------------------------------------------------------------------



  FREE ENERGIE OF THE ION-ELECTRON SYSTEM (eV)
  ---------------------------------------------------
  free  energy   TOTEN  =     -1756.01956669 eV

  energy  without entropy=    -1756.01956669  energy(sigma->0) =    -1756.01956669
 


--------------------------------------------------------------------------------------------------------


    POTLOK:  cpu time    0.2840: real time    0.2834


--------------------------------------------------------------------------------------------------------




--------------------------------------------------------------------------------------------------------


  
 reached required accuracy - stopping structural energy minimisation
     LOOP+:  cpu time   29.3938: real time   29.5262
    4ORBIT:  cpu time    0.0000: real time    0.0000
 


 total charge     
 
# of ion       s       p       d       tot
------------------------------------------
    1        0.078   0.138   0.000   0.217
    2        0.085   0.153   0.000   0.238
    3        0.079   0.135   0.000   0.214
    4        0.084   0.146   0.000   0.231
    5        0.086   0.150   0.000   0.236
    6        0.084   0.150   0.000   0.234
    7        0.077   0.127   0.000   0.204
    8        0.083   0.144   0.000   0.227
    9        0.079   0.136   0.000   0.215
   10        0.084   0.141   0.000   0.226
   11        0.087   0.150   0.000   0.237
   12        0.081   0.137   0.000   0.218
   13        0.084   0.150   0.000   0.234
   14        0.082   0.143   0.000   0.225
   15        0.083   0.141   0.000   0.225
   16        0.078   0.133   0.000   0.212
   17        0.084   0.146   0.000   0.230
   18        0.081   0.142   0.000   0.223
   19        0.090   0.154   0.000   0.245
   20        0.077   0.133   0.000   0.210
   21        0.076   0.126   0.000   0.202
   22        0.076   0.129   0.000   0.205
   23        0.091   0.158   0.000   0.249
   24        0.083   0.143   0.000   0.226
   25        0.076   0.125   0.000   0.202
   26        0.079   0.136   0.000   0.215
   27        0.083   0.143   0.000   0.226
   28        0.085   0.146   0.000   0.231
   29        0.090   0.160   0.000   0.250
   30        0.082   0.142   0.000   0.224
   31        0.074   0.123   0.000   0.197
   32        0.078   0.133   0.000   0.211
   33        0.074   0.126   0.000   0.200
   34        0.083   0.142   0.000   0.224
   35        0.082   0.140   0.000   0.223
   36        0.090   0.161   0.000   0.251
   37        0.092   0.166   0.000   0.258
   38        0.082   0.137   0.000   0.219
   39        0.082   0.138   0.000   0.220
   40        0.082   0.142   0.000   0.225
   41        0.076   0.126   0.000   0.203
   42        0.079   0.136   0.000   0.215
   43        0.088   0.147   0.000   0.235
   44        0.086   0.151   0.000   0.237
   45        0.079   0.138   0.000   0.217
   46        0.079   0.140   0.000   0.220
   47        0.082   0.140   0.000   0.222
   48        0.082   0.138   0.000   0.220
   49        0.085   0.148   0.000   0.233
   50        0.092   0.160   0.000   0.252
   51        0.083   0.145   0.000   0.228
   52        0.069   0.113   0.000   0.182
   53        0.093   0.166   0.000   0.259
   54        0.088   0.156   0.000   0.244
   55        0.081   0.139   0.000   0.221
   56        0.081   0.141   0.000   0.222
   57        0.080   0.137   0.000   0.217
   58        0.095   0.170   0.000   0.265
   59        0.089   0.155   0.000   0.244
   60        0.085   0.147   0.000   0.232
   61        0.088   0.158   0.000   0.245
   62        0.082   0.143   0.000   0.224
   63        0.087   0.145   0.000   0.232
   64        0.073   0.120   0.000   0.193
   65        0.083   0.146   0.000   0.228
   66        0.081   0.139   0.000   0.220
   67        0.080   0.138   0.000   0.219
   68        0.082   0.141   0.000   0.223
   69        0.088   0.155   0.000   0.243
   70        0.081   0.139   0.000   0.220
   71        0.079   0.135   0.000   0.214
   72        0.084   0.146   0.000   0.230
   73        0.080   0.137   0.000   0.217
   74        0.081   0.138   0.000   0.219
   75        0.089   0.156   0.000   0.244
   76        0.082   0.139   0.000   0.221
   77        0.084   0.147   0.000   0.231
   78        0.086   0.154   0.000   0.239
   79        0.092   0.166   0.000   0.258
   80        0.087   0.149   0.000   0.236
   81        0.074   0.124   0.000   0.198
   82        0.083   0.144   0.000   0.227
   83        0.087   0.149   0.000   0.236
   84        0.085   0.149   0.000   0.234
   85        0.080   0.135   0.000   0.215
   86        0.089   0.156   0.000   0.245
   87        0.081   0.141   0.000   0.221
   88        0.085   0.145   0.000   0.230
   89        0.069   0.113   0.000   0.182
   90        0.080   0.135   0.000   0.215
   91        0.083   0.143   0.000   0.225
   92        0.087   0.146   0.000   0.233
   93        0.099   0.181   0.000   0.280
   94        0.084   0.147   0.000   0.230
   95        0.071   0.116   0.000   0.187
   96        0.078   0.134   0.000   0.212
   97        0.079   0.133   0.000   0.212
   98        0.098   0.181   0.000   0.279
   99        0.084   0.147   0.000   0.231
  100        0.078   0.132   0.000   0.210
  101        0.091   0.164   0.000   0.255
  102        0.076   0.128   0.000   0.204
  103        0.076   0.129   0.000   0.205
  104        0.091   0.161   0.000   0.251
  105        0.065   0.106   0.000   0.171
  106        0.085   0.147   0.000   0.232
  107        0.086   0.154   0.000   0.240
  108        0.074   0.124   0.000   0.198
  109        0.080   0.137   0.000   0.217
  110        0.078   0.131   0.000   0.209
  111        0.081   0.136   0.000   0.217
  112        0.091   0.165   0.000   0.255
  113        0.071   0.116   0.000   0.187
  114        0.077   0.131   0.000   0.209
  115        0.093   0.163   0.000   0.256
  116        0.086   0.150   0.000   0.235
  117        0.084   0.146   0.000   0.229
  118        0.078   0.130   0.000   0.208
  119        0.089   0.157   0.000   0.246
  120        0.083   0.144   0.000   0.227
  121        0.091   0.159   0.000   0.250
  122        0.080   0.133   0.000   0.213
  123        0.086   0.148   0.000   0.233
  124        0.077   0.129   0.000   0.206
  125        0.085   0.146   0.000   0.231
  126        0.078   0.135   0.000   0.213
  127        0.083   0.140   0.000   0.223
  128        0.081   0.136   0.000   0.217
  129        0.089   0.157   0.000   0.246
  130        0.087   0.151   0.000   0.238
  131        0.088   0.154   0.000   0.242
  132        0.071   0.119   0.000   0.190
  133        0.085   0.147   0.000   0.231
  134        0.080   0.141   0.000   0.222
  135        0.089   0.157   0.000   0.246
  136        0.089   0.155   0.000   0.244
  137        0.084   0.146   0.000   0.230
  138        0.090   0.158   0.000   0.248
  139        0.089   0.152   0.000   0.241
  140        0.088   0.158   0.000   0.247
  141        0.088   0.154   0.000   0.242
  142        0.080   0.141   0.000   0.221
  143        0.089   0.155   0.000   0.245
  144        0.082   0.142   0.000   0.224
  145        0.087   0.155   0.000   0.243
  146        0.090   0.160   0.000   0.250
  147        0.087   0.156   0.000   0.243
  148        0.086   0.153   0.000   0.238
  149        0.084   0.145   0.000   0.229
  150        0.079   0.135   0.000   0.214
  151        0.080   0.136   0.000   0.215
  152        0.088   0.148   0.000   0.236
  153        0.080   0.138   0.000   0.218
  154        0.082   0.141   0.000   0.222
  155        0.084   0.147   0.000   0.231
  156        0.086   0.150   0.000   0.236
  157        0.091   0.162   0.000   0.253
  158        0.087   0.152   0.000   0.239
  159        0.086   0.151   0.000   0.238
  160        0.078   0.134   0.000   0.212
  161        0.081   0.139   0.000   0.220
  162        0.091   0.161   0.000   0.252
  163        0.087   0.153   0.000   0.240
  164        0.081   0.139   0.000   0.220
  165        0.091   0.162   0.000   0.253
  166        0.081   0.139   0.000   0.220
  167        0.086   0.155   0.000   0.240
  168        0.088   0.155   0.000   0.243
  169        0.083   0.143   0.000   0.226
  170        0.086   0.154   0.000   0.241
  171        0.089   0.157   0.000   0.245
  172        0.086   0.148   0.000   0.233
  173        0.084   0.144   0.000   0.228
  174        0.079   0.135   0.000   0.215
  175        0.079   0.135   0.000   0.214
  176        0.081   0.138   0.000   0.219
  177        0.090   0.161   0.000   0.251
  178        0.080   0.137   0.000   0.217
  179        0.083   0.144   0.000   0.227
  180        0.097   0.173   0.000   0.270
  181        0.092   0.162   0.000   0.253
  182        0.077   0.128   0.000   0.205
  183        0.087   0.153   0.000   0.240
  184        0.089   0.157   0.000   0.246
  185        0.074   0.123   0.000   0.197
  186        0.085   0.148   0.000   0.233
  187        0.084   0.145   0.000   0.228
  188        0.078   0.132   0.000   0.210
  189        0.080   0.132   0.000   0.212
  190        0.084   0.139   0.000   0.223
  191        0.088   0.152   0.000   0.240
  192        0.078   0.131   0.000   0.209
  193        1.491   2.854   0.006   4.352
  194        1.491   2.855   0.005   4.352
  195        1.493   2.842   0.006   4.341
  196        1.492   2.851   0.005   4.348
  197        1.494   2.841   0.007   4.342
  198        1.491   2.855   0.005   4.351
  199        1.491   2.866   0.007   4.364
  200        1.491   2.854   0.006   4.351
  201        1.492   2.858   0.006   4.356
  202        1.493   2.845   0.006   4.344
  203        1.492   2.854   0.006   4.352
  204        1.494   2.853   0.007   4.353
  205        1.494   2.836   0.006   4.336
  206        1.492   2.847   0.006   4.345
  207        1.492   2.847   0.005   4.344
  208        1.493   2.853   0.007   4.353
  209        1.493   2.843   0.006   4.342
  210        1.492   2.850   0.005   4.347
  211        1.493   2.842   0.006   4.341
  212        1.493   2.832   0.005   4.330
  213        1.493   2.845   0.005   4.343
  214        1.492   2.848   0.006   4.346
  215        1.492   2.849   0.006   4.348
  216        1.491   2.848   0.005   4.344
  217        1.491   2.840   0.004   4.336
  218        1.492   2.846   0.005   4.343
  219        1.493   2.836   0.006   4.335
  220        1.492   2.854   0.006   4.351
  221        1.491   2.850   0.004   4.345
  222        1.493   2.845   0.006   4.344
  223        1.495   2.826   0.006   4.327
  224        1.490   2.867   0.005   4.362
  225        1.300   2.453   0.000   3.754
  226        1.300   2.457   0.000   3.757
  227        1.301   2.466   0.000   3.767
  228        1.299   2.476   0.000   3.775
  229        1.301   2.441   0.000   3.742
  230        1.299   2.482   0.000   3.781
  231        1.300   2.457   0.000   3.757
  232        1.301   2.452   0.000   3.753
  233        1.300   2.444   0.000   3.745
  234        1.300   2.472   0.000   3.771
  235        1.300   2.475   0.000   3.775
  236        1.302   2.433   0.000   3.735
  237        1.299   2.481   0.000   3.780
  238        1.300   2.477   0.000   3.777
  239        1.300   2.460   0.000   3.760
  240        1.300   2.450   0.000   3.751
  241        1.332   2.427   0.000   3.759
  242        1.328   2.424   0.000   3.752
  243        1.330   2.421   0.000   3.751
  244        1.332   2.427   0.000   3.758
  245        1.327   2.430   0.000   3.758
  246        1.331   2.427   0.000   3.758
  247        1.330   2.424   0.000   3.754
  248        1.332   2.427   0.000   3.759
  249        1.328   2.429   0.000   3.757
  250        1.338   2.415   0.000   3.753
  251        1.338   2.408   0.000   3.746
  252        1.336   2.413   0.000   3.749
  253        1.335   2.423   0.000   3.757
  254        1.337   2.416   0.000   3.753
  255        1.332   2.423   0.000   3.755
  256        1.332   2.426   0.000   3.758
  257        1.330   2.426   0.000   3.756
  258        1.328   2.422   0.000   3.750
  259        1.334   2.412   0.000   3.747
  260        1.326   2.424   0.000   3.750
  261        1.332   2.420   0.000   3.752
  262        1.334   2.423   0.000   3.758
  263        1.332   2.432   0.000   3.764
  264        1.333   2.419   0.000   3.752
  265        1.335   2.411   0.000   3.747
  266        1.331   2.424   0.000   3.755
  267        1.333   2.428   0.000   3.761
  268        1.334   2.410   0.000   3.744
  269        1.329   2.422   0.000   3.751
  270        1.330   2.423   0.000   3.754
  271        1.333   2.431   0.000   3.765
  272        1.336   2.412   0.000   3.748
  273        1.300   2.469   0.000   3.768
  274        1.300   2.478   0.000   3.778
  275        1.300   2.460   0.000   3.760
  276        1.334   2.412   0.000   3.747
  277        1.330   2.420   0.000   3.749
  278        1.328   2.430   0.000   3.758
  279        1.335   2.414   0.000   3.748
  280        1.328   2.430   0.000   3.758
  281        1.325   2.433   0.000   3.758
  282        1.329   2.433   0.000   3.762
  283        1.336   2.408   0.000   3.744
  284        1.331   2.426   0.000   3.756
  285        1.337   2.424   0.000   3.760
  286        1.330   2.412   0.000   3.742
  287        1.331   2.425   0.000   3.756
  288        1.333   2.432   0.000   3.765
  289        1.335   2.417   0.000   3.752
  290        1.329   2.433   0.000   3.762
  291        1.343   2.408   0.000   3.750
  292        1.334   2.421   0.000   3.755
  293        1.332   2.414   0.000   3.746
  294        1.330   2.421   0.000   3.751
  295        1.334   2.423   0.000   3.757
  296        1.335   2.425   0.000   3.760
  297        1.331   2.424   0.000   3.755
  298        1.334   2.423   0.000   3.757
  299        1.337   2.419   0.000   3.756
  300        1.331   2.424   0.000   3.755
  301        1.336   2.415   0.000   3.751
  302        1.335   2.415   0.000   3.750
  303        1.330   2.425   0.000   3.755
  304        1.329   2.423   0.000   3.752
  305        1.328   2.426   0.000   3.754
  306        1.336   2.405   0.000   3.741
  307        1.334   2.425   0.000   3.759
  308        1.299   2.472   0.000   3.771
  309        1.301   2.473   0.000   3.774
  310        1.300   2.462   0.000   3.762
  311        1.300   2.484   0.000   3.785
  312        1.333   2.421   0.000   3.754
  313        1.332   2.427   0.000   3.759
  314        1.331   2.414   0.000   3.745
  315        1.339   2.407   0.000   3.745
  316        1.329   2.436   0.000   3.765
  317        1.335   2.420   0.000   3.755
  318        1.329   2.431   0.000   3.760
  319        1.329   2.421   0.000   3.750
  320        1.330   2.421   0.000   3.751
  321        1.332   2.426   0.000   3.758
  322        1.328   2.427   0.000   3.755
  323        1.326   2.430   0.000   3.757
  324        1.327   2.435   0.000   3.763
  325        1.338   2.411   0.000   3.749
  326        1.331   2.421   0.000   3.752
  327        1.330   2.419   0.000   3.750
  328        1.333   2.418   0.000   3.751
  329        1.333   2.419   0.000   3.752
  330        1.332   2.430   0.000   3.762
  331        1.330   2.420   0.000   3.751
  332        1.333   2.412   0.000   3.745
  333        1.334   2.419   0.000   3.754
  334        1.328   2.431   0.000   3.759
  335        1.334   2.408   0.000   3.742
  336        1.330   2.429   0.000   3.759
  337        1.334   2.421   0.000   3.755
  338        1.331   2.420   0.000   3.750
  339        1.330   2.425   0.000   3.755
  340        1.327   2.438   0.000   3.765
  341        1.338   2.420   0.000   3.758
  342        1.336   2.412   0.000   3.748
  343        1.333   2.418   0.000   3.751
  344        1.300   2.481   0.000   3.781
  345        1.300   2.466   0.000   3.766
  346        1.300   2.460   0.000   3.759
  347        1.300   2.475   0.000   3.775
  348        1.300   2.466   0.000   3.766
  349        1.327   2.431   0.000   3.758
  350        1.335   2.414   0.000   3.750
  351        1.329   2.428   0.000   3.757
  352        1.331   2.424   0.000   3.755
  353        1.332   2.419   0.000   3.751
  354        1.334   2.423   0.000   3.758
  355        1.337   2.416   0.000   3.753
  356        1.334   2.425   0.000   3.760
  357        1.337   2.407   0.000   3.745
  358        1.332   2.421   0.000   3.753
  359        1.334   2.420   0.000   3.754
  360        1.327   2.419   0.000   3.746
  361        1.331   2.423   0.000   3.753
  362        1.336   2.407   0.000   3.743
  363        1.335   2.417   0.000   3.752
  364        1.331   2.422   0.000   3.753
  365        1.327   2.419   0.000   3.747
  366        1.326   2.426   0.000   3.752
  367        1.327   2.434   0.000   3.760
  368        1.332   2.423   0.000   3.755
  369        1.334   2.418   0.000   3.752
  370        1.333   2.413   0.000   3.746
  371        1.337   2.403   0.000   3.741
  372        1.332   2.428   0.000   3.760
  373        1.332   2.420   0.000   3.751
  374        1.328   2.430   0.000   3.758
  375        1.333   2.414   0.000   3.747
  376        1.335   2.417   0.000   3.752
  377        1.335   2.429   0.000   3.764
  378        1.333   2.418   0.000   3.750
  379        1.336   2.409   0.000   3.745
  380        1.334   2.430   0.000   3.763
  381        1.299   2.465   0.000   3.765
  382        1.300   2.458   0.000   3.758
  383        1.299   2.477   0.000   3.776
  384        1.300   2.474   0.000   3.774
  385        0.970   1.374   0.000   2.344
  386        0.972   1.380   0.000   2.352
  387        0.970   1.372   0.000   2.343
  388        0.969   1.375   0.000   2.344
  389        0.970   1.384   0.000   2.354
  390        0.971   1.383   0.000   2.354
  391        0.971   1.380   0.000   2.351
  392        0.970   1.382   0.000   2.353
  393        0.971   1.375   0.000   2.346
  394        0.970   1.384   0.000   2.354
  395        0.971   1.373   0.000   2.344
  396        0.970   1.378   0.000   2.348
  397        0.969   1.383   0.000   2.352
  398        0.971   1.380   0.000   2.351
  399        0.970   1.382   0.000   2.352
  400        0.971   1.383   0.000   2.354
  401        0.970   1.381   0.000   2.351
  402        0.970   1.380   0.000   2.350
  403        0.970   1.379   0.000   2.349
  404        0.970   1.375   0.000   2.345
  405        0.970   1.378   0.000   2.348
  406        0.969   1.379   0.000   2.349
  407        0.969   1.377   0.000   2.346
  408        0.969   1.374   0.000   2.343
  409        0.969   1.379   0.000   2.347
  410        0.969   1.374   0.000   2.343
  411        0.970   1.384   0.000   2.354
  412        0.969   1.377   0.000   2.347
  413        0.968   1.375   0.000   2.343
  414        0.969   1.379   0.000   2.349
  415        0.970   1.383   0.000   2.352
  416        0.969   1.375   0.000   2.345
--------------------------------------------------
tot        306.913 551.755   0.183 858.851
 

 total amount of memory used by VASP MPI-rank0    48667. kBytes
=======================================================================

   base      :      30000. kBytes
   nonlr-proj:       5155. kBytes
   fftplans  :       5479. kBytes
   grid      :       5170. kBytes
   one-center:        210. kBytes
   wavefun   :       2653. kBytes
 
  
  
 General timing and accounting informations for this job:
 ========================================================
  
                  Total CPU time used (sec):       91.918
                            User time (sec):       57.284
                          System time (sec):       34.634
                         Elapsed time (sec):      135.104
  
                   Maximum memory used (kb):      214164.
                   Average memory used (kb):           0.
  
                          Minor page faults:        56210
                          Major page faults:            0
                 Voluntary context switches:         1092
