 vasp.5.4.4.18Apr17-6-g9f103f2a35 (build Apr 27 2017 19:33:31) gamma-only       
  
 executed on       CrayXC-Intel16 date 2019.09.10  02:21:16
 running on  288 total cores
 distrk:  each k-point on  288 cores,    1 groups
 distr:  one band on NCORES_PER_BAND=   8 cores,   36 groups


--------------------------------------------------------------------------------------------------------


 INCAR:
 POTCAR:    PAW_PBE Li 17Jan2003                  
 POTCAR:    PAW_PBE I 08Apr2002                   
 POTCAR:    PAW_PBE S 06Sep2000                   
 POTCAR:    PAW_PBE P 06Sep2000                   

 ----------------------------------------------------------------------------- 
|                                                                             |
|           W    W    AA    RRRRR   N    N  II  N    N   GGGG   !!!           |
|           W    W   A  A   R    R  NN   N  II  NN   N  G    G  !!!           |
|           W    W  A    A  R    R  N N  N  II  N N  N  G       !!!           |
|           W WW W  AAAAAA  RRRRR   N  N N  II  N  N N  G  GGG   !            |
|           WW  WW  A    A  R   R   N   NN  II  N   NN  G    G                |
|           W    W  A    A  R    R  N    N  II  N    N   GGGG   !!!           |
|                                                                             |
|      For optimal performance we recommend to set                            |
|        NCORE= 4 - approx SQRT( number of cores)                             |
|      NCORE specifies how many cores store one orbital (NPAR=cpu/NCORE).     |
|      This setting can  greatly improve the performance of VASP for DFT.     |
|      The default,   NCORE=1            might be grossly inefficient         |
|      on modern multi-core architectures or massively parallel machines.     |
|      Do your own testing !!!!                                               |
|      Unfortunately you need to use the default for GW and RPA calculations. |
|      (for HF NCORE is supported but not extensively tested yet)             |
|                                                                             |
 ----------------------------------------------------------------------------- 

 POTCAR:    PAW_PBE Li 17Jan2003                  
   VRHFIN =Li: s1p0                                                             
   LEXCH  = PE                                                                  
   EATOM  =     5.3001 eV,    0.3895 Ry                                         
                                                                                
   TITEL  = PAW_PBE Li 17Jan2003                                                
   LULTRA =        F    use ultrasoft PP ?                                      
   IUNSCR =        1    unscreen: 0-lin 1-nonlin 2-no                           
   RPACOR =    1.500    partial core radius                                     
   POMASS =    7.010; ZVAL   =    1.000    mass and valenz                      
   RCORE  =    2.050    outmost cutoff radius                                   
   RWIGS  =    2.600; RWIGS  =    1.376    wigner-seitz radius (au A)           
   ENMAX  =  140.000; ENMIN  =  100.000 eV                                      
   ICORE  =        2    local potential                                         
   LCOR   =        T    correct aug charges                                     
   LPAW   =        T    paw PP                                                  
   EAUG   =  331.638                                                            
   DEXC   =    0.000                                                            
   RMAX   =    2.098    core radius for proj-oper                               
   RAUG   =    1.300    factor for augmentation sphere                          
   RDEP   =    2.094    radius for radial grids                                 
   RDEPT  =    1.810    core radius for aug-charge                              
                                                                                
   Atomic configuration                                                         
    4 entries                                                                   
     n  l   j            E        occ.                                          
     1  0  0.50       -51.8549   2.0000                                         
     2  0  0.50        -2.8742   1.0000                                         
     2  1  0.50        -1.3606   0.0000                                         
     3  2  1.50        -1.3606   0.0000                                         
   Description                                                                  
     l       E           TYP  RCUT    TYP  RCUT                                 
     0     -2.8742052     23  2.050                                             
     0     27.2116520     23  2.050                                             
     1     -1.3605826     23  2.050                                             
     2     -1.3605826     23  2.050                                             
  local pseudopotential read in
  partial core-charges read in
  partial kinetic energy density read in
  atomic valenz-charges read in
  non local Contribution for L=           0  read in
    real space projection operators read in
  non local Contribution for L=           0  read in
    real space projection operators read in
  non local Contribution for L=           1  read in
    real space projection operators read in
    PAW grid and wavefunctions read in
 
   number of l-projection  operators is LMAX  =           3
   number of lm-projection operators is LMMAX =           5
 
 POTCAR:    PAW_PBE I 08Apr2002                   
   VRHFIN =I : s2p5                                                             
   LEXCH  = PE                                                                  
   EATOM  =   315.8678 eV,   23.2156 Ry                                         
                                                                                
   TITEL  = PAW_PBE I 08Apr2002                                                 
   LULTRA =        F    use ultrasoft PP ?                                      
   IUNSCR =        1    unscreen: 0-lin 1-nonlin 2-no                           
   RPACOR =    2.200    partial core radius                                     
   POMASS =  126.904; ZVAL   =    7.000    mass and valenz                      
   RCORE  =    2.300    outmost cutoff radius                                   
   RWIGS  =    2.810; RWIGS  =    1.487    wigner-seitz radius (au A)           
   ENMAX  =  175.647; ENMIN  =  131.735 eV                                      
   ICORE  =        3    local potential                                         
   LCOR   =        T    correct aug charges                                     
   LPAW   =        T    paw PP                                                  
   EAUG   =  370.139                                                            
   DEXC   =    0.000                                                            
   RMAX   =    2.359    core radius for proj-oper                               
   RAUG   =    1.300    factor for augmentation sphere                          
   RDEP   =    2.392    radius for radial grids                                 
   RDEPT  =    2.170    core radius for aug-charge                              
                                                                                
   Atomic configuration                                                         
   13 entries                                                                   
     n  l   j            E        occ.                                          
     1  0  0.50    -32976.3739   2.0000                                         
     2  0  0.50     -5094.5933   2.0000                                         
     2  1  1.50     -4572.0131   6.0000                                         
     3  0  0.50     -1028.2813   2.0000                                         
     3  1  1.50      -859.0250   6.0000                                         
     3  2  2.50      -605.7620  10.0000                                         
     4  0  0.50      -180.5540   2.0000                                         
     4  1  1.50      -127.5306   6.0000                                         
     4  2  2.50       -50.2720  10.0000                                         
     5  0  0.50       -17.4058   2.0000                                         
     5  1  0.50        -7.0851   5.0000                                         
     5  2  1.50        -7.0750   0.0000                                         
     4  3  2.50        -7.0750   0.0000                                         
   Description                                                                  
     l       E           TYP  RCUT    TYP  RCUT                                 
     0    -17.4058016     23  2.300                                             
     0    -18.7663842     23  2.300                                             
     1     -7.0850686     23  2.300                                             
     1     -4.2150896     23  2.300                                             
     2     -7.0750295     23  2.300                                             
     3     -1.3605826     23  2.300                                             
  local pseudopotential read in
  partial core-charges read in
  partial kinetic energy density read in
  atomic valenz-charges read in
  non local Contribution for L=           0  read in
    real space projection operators read in
  non local Contribution for L=           0  read in
    real space projection operators read in
  non local Contribution for L=           1  read in
    real space projection operators read in
  non local Contribution for L=           1  read in
    real space projection operators read in
  non local Contribution for L=           2  read in
    real space projection operators read in
    PAW grid and wavefunctions read in
 
   number of l-projection  operators is LMAX  =           5
   number of lm-projection operators is LMMAX =          13
 
 POTCAR:    PAW_PBE S 06Sep2000                   
   VRHFIN =S : s2p4                                                             
   LEXCH  = PE                                                                  
   EATOM  =   276.8230 eV,   20.3459 Ry                                         
                                                                                
   TITEL  = PAW_PBE S 06Sep2000                                                 
   LULTRA =        F    use ultrasoft PP ?                                      
   IUNSCR =        1    unscreen: 0-lin 1-nonlin 2-no                           
   RPACOR =    1.500    partial core radius                                     
   POMASS =   32.066; ZVAL   =    6.000    mass and valenz                      
   RCORE  =    1.900    outmost cutoff radius                                   
   RWIGS  =    2.200; RWIGS  =    1.164    wigner-seitz radius (au A)           
   ENMAX  =  258.689; ENMIN  =  194.016 eV                                      
   ICORE  =        2    local potential                                         
   LCOR   =        T    correct aug charges                                     
   LPAW   =        T    paw PP                                                  
   EAUG   =  335.092                                                            
   DEXC   =    0.000                                                            
   RMAX   =    1.942    core radius for proj-oper                               
   RAUG   =    1.300    factor for augmentation sphere                          
   RDEP   =    1.954    radius for radial grids                                 
   RDEPT  =    1.744    core radius for aug-charge                              
                                                                                
   Atomic configuration                                                         
    6 entries                                                                   
     n  l   j            E        occ.                                          
     1  0  0.50     -2405.8406   2.0000                                         
     2  0  0.50      -211.7007   2.0000                                         
     2  1  1.50      -156.4958   6.0000                                         
     3  0  0.50       -17.2562   2.0000                                         
     3  1  0.50        -7.0085   4.0000                                         
     3  2  1.50        -6.8029   0.0000                                         
   Description                                                                  
     l       E           TYP  RCUT    TYP  RCUT                                 
     0    -17.2561641     23  1.900                                             
     0    -15.8743224     23  1.900                                             
     1     -7.0085400     23  1.900                                             
     1     -2.7779785     23  1.900                                             
     2     -6.8029130     23  1.900                                             
  local pseudopotential read in
  partial core-charges read in
  partial kinetic energy density read in
  atomic valenz-charges read in
  non local Contribution for L=           0  read in
    real space projection operators read in
  non local Contribution for L=           0  read in
    real space projection operators read in
  non local Contribution for L=           1  read in
    real space projection operators read in
  non local Contribution for L=           1  read in
    real space projection operators read in
    PAW grid and wavefunctions read in
 
   number of l-projection  operators is LMAX  =           4
   number of lm-projection operators is LMMAX =           8
 
 POTCAR:    PAW_PBE P 06Sep2000                   
   VRHFIN =P : s2p3                                                             
   LEXCH  = PE                                                                  
   EATOM  =   176.0430 eV,   12.9388 Ry                                         
                                                                                
   TITEL  = PAW_PBE P 06Sep2000                                                 
   LULTRA =        F    use ultrasoft PP ?                                      
   IUNSCR =        1    unscreen: 0-lin 1-nonlin 2-no                           
   RPACOR =    1.500    partial core radius                                     
   POMASS =   30.974; ZVAL   =    5.000    mass and valenz                      
   RCORE  =    1.900    outmost cutoff radius                                   
   RWIGS  =    2.330; RWIGS  =    1.233    wigner-seitz radius (au A)           
   ENMAX  =  255.040; ENMIN  =  191.280 eV                                      
   ICORE  =        2    local potential                                         
   LCOR   =        T    correct aug charges                                     
   LPAW   =        T    paw PP                                                  
   EAUG   =  342.924                                                            
   DEXC   =    0.000                                                            
   RMAX   =    1.935    core radius for proj-oper                               
   RAUG   =    1.300    factor for augmentation sphere                          
   RDEP   =    1.931    radius for radial grids                                 
   RDEPT  =    1.794    core radius for aug-charge                              
                                                                                
   Atomic configuration                                                         
    6 entries                                                                   
     n  l   j            E        occ.                                          
     1  0  0.50     -2084.0982   2.0000                                         
     2  0  0.50      -173.9859   2.0000                                         
     2  1  1.50      -124.4865   6.0000                                         
     3  0  0.50       -13.9692   2.0000                                         
     3  1  0.50        -5.5067   3.0000                                         
     3  2  1.50        -5.4423   0.0000                                         
   Description                                                                  
     l       E           TYP  RCUT    TYP  RCUT                                 
     0    -13.9691527     23  1.900                                             
     0    -11.7794650     23  1.900                                             
     1     -5.5066937     23  1.900                                             
     1     -0.2556953     23  1.900                                             
     2     -5.4423304     23  1.900                                             
  local pseudopotential read in
  partial core-charges read in
  partial kinetic energy density read in
  atomic valenz-charges read in
  non local Contribution for L=           0  read in
    real space projection operators read in
  non local Contribution for L=           0  read in
    real space projection operators read in
  non local Contribution for L=           1  read in
    real space projection operators read in
  non local Contribution for L=           1  read in
    real space projection operators read in
    PAW grid and wavefunctions read in
 
   number of l-projection  operators is LMAX  =           4
   number of lm-projection operators is LMMAX =           8
 
 Optimization of the real space projectors (new method)

 maximal supplied QI-value         = 18.33
 optimisation between [QCUT,QGAM] = [  8.43, 17.05] = [ 19.91, 81.38] Ry 
 Optimized for a Real-space Cutoff    1.60 Angstroem

   l    n(q)    QCUT    max X(q) W(low)/X(q) W(high)/X(q)  e(spline) 
   0      8     8.432    33.825    0.85E-04    0.69E-04    0.12E-06
   0      8     8.432     8.944    0.64E-04    0.57E-04    0.91E-07
   1      8     8.432     4.214    0.51E-04    0.11E-03    0.64E-07
 Optimization of the real space projectors (new method)

 maximal supplied QI-value         = 16.25
 optimisation between [QCUT,QGAM] = [  8.45, 17.06] = [ 20.00, 81.54] Ry 
 Optimized for a Real-space Cutoff    1.75 Angstroem

   l    n(q)    QCUT    max X(q) W(low)/X(q) W(high)/X(q)  e(spline) 
   0      9     8.451   194.483    0.52E-04    0.73E-04    0.77E-07
   0      9     8.451   190.334    0.51E-04    0.71E-04    0.75E-07
   1      8     8.451   116.687    0.93E-04    0.12E-03    0.22E-06
   1      8     8.451    88.696    0.92E-04    0.12E-03    0.22E-06
   2      8     8.451     4.877    0.16E-04    0.50E-04    0.44E-07
 Optimization of the real space projectors (new method)

 maximal supplied QI-value         = 19.84
 optimisation between [QCUT,QGAM] = [  8.53, 17.06] = [ 20.39, 81.54] Ry 
 Optimized for a Real-space Cutoff    1.75 Angstroem

   l    n(q)    QCUT    max X(q) W(low)/X(q) W(high)/X(q)  e(spline) 
   0      9     8.532   187.594    0.67E-04    0.16E-04    0.31E-06
   0      9     8.532   164.243    0.66E-04    0.15E-04    0.31E-06
   1      8     8.532    67.533    0.89E-04    0.21E-03    0.25E-06
   1      8     8.532    50.729    0.87E-04    0.20E-03    0.25E-06
 Optimization of the real space projectors (new method)

 maximal supplied QI-value         = 19.84
 optimisation between [QCUT,QGAM] = [  8.53, 17.06] = [ 20.39, 81.54] Ry 
 Optimized for a Real-space Cutoff    1.75 Angstroem

   l    n(q)    QCUT    max X(q) W(low)/X(q) W(high)/X(q)  e(spline) 
   0      9     8.532   160.924    0.60E-04    0.18E-04    0.30E-06
   0      9     8.532   130.086    0.59E-04    0.18E-04    0.30E-06
   1      8     8.532    74.434    0.88E-04    0.20E-03    0.24E-06
   1      8     8.532    49.120    0.85E-04    0.20E-03    0.24E-06

 ----------------------------------------------------------------------------- 
|                                                                             |
|  ADVICE TO THIS USER RUNNING 'VASP/VAMP'   (HEAR YOUR MASTER'S VOICE ...):  |
|                                                                             |
|      You enforced a specific xc-type in the INCAR file,                     |
|      a different type was found on the POTCAR file                          |
|          I HOPE YOU KNOW, WHAT YOU ARE  DOING                               |
|                                                                             |
 ----------------------------------------------------------------------------- 

  PAW_PBE Li 17Jan2003                  :
 energy of atom  1       EATOM=   -5.3001
 kinetic energy error for atom=    0.0000 (will be added to EATOM!!)
  PAW_PBE I 08Apr2002                   :
 energy of atom  2       EATOM= -315.8678
 kinetic energy error for atom=    0.0040 (will be added to EATOM!!)
  PAW_PBE S 06Sep2000                   :
 energy of atom  3       EATOM= -276.8230
 kinetic energy error for atom=    0.0122 (will be added to EATOM!!)
  PAW_PBE P 06Sep2000                   :
 energy of atom  4       EATOM= -176.0430
 kinetic energy error for atom=    0.0061 (will be added to EATOM!!)
 
 
 POSCAR: Li192 P32 S160 I32                      
  positions in direct lattice
  velocities in cartesian coordinates
 exchange correlation table for  LEXCH =       14
   RHO(1)=    0.500       N(1)  =     2000
   RHO(2)=  100.500       N(2)  =     4000
 


--------------------------------------------------------------------------------------------------------


 ion  position               nearest neighbor table
   1  0.089  0.158  0.257- 328 2.43 312 2.46 217 2.75 204 2.75
   2  0.326  0.260  0.909- 233 2.40 337 2.52 381 2.53 242 2.70  42 2.85  26 2.90
   3  0.243  0.674  0.407- 338 2.48 236 2.51 274 2.53 259 2.60  64 2.68  19 3.03 143 3.27
   4  0.169  0.504  0.832- 228 2.38 350 2.50 301 2.53 194 2.89 162 3.22
   5  0.382  0.092  1.000- 258 2.40 242 2.56 197 2.77 213 2.84 113 3.16  57 3.21
   6  0.589  0.170  0.762- 317 2.45 333 2.46 222 2.70 205 2.74  96 2.87
   7  0.996  0.399  0.905- 366 2.42 301 2.52 196 2.76 211 2.87
   8  0.663  0.490  0.829- 305 2.51 232 2.52 354 2.53  48 2.84 202 2.89  70 3.28 173 3.30
   9  0.398  0.401  0.499- 374 2.49 358 2.56 198 2.72 216 2.77
  10  0.011  0.141  0.856- 273 2.45 246 2.46 325 2.54  18 2.94 218 2.97  34 3.25
  11  0.303  0.618  0.218- 227 2.38 345 2.39 338 2.42 314 2.63 139 2.74 395 2.98  35 2.99  50 3.20
                           153 3.25
  12  0.232  0.363  0.516- 234 2.39 374 2.48 349 2.50 201 3.09 388 3.11 130 3.19
  13  0.382  0.208  0.238- 336 2.40 292 2.56 221 2.72 197 2.86 393 2.97
  14  0.894  0.107  0.018- 346 2.37 262 2.51 246 2.51 182 2.94 209 2.98 101 3.25 174 3.26
  15  0.516  0.380  0.610- 310 2.44 277 2.49 358 2.57  47 3.01 190 3.07 216 3.08
  16  0.680  0.803  0.439- 240 2.35 371 2.54 290 2.55 355 2.79 144 3.15 102 3.20  72 3.24 159 3.24
                           151 3.27
  17  0.322  0.993  0.160- 225 2.44 375 2.51 278 2.56 197 2.82  68 2.94 137 3.20
  18  0.122  0.200  0.786- 273 2.41 313 2.43 285 2.54 218 2.71 129 2.90 394 2.91  10 2.94 156 3.11

  19  0.232  0.534  0.360- 227 2.43 259 2.49 349 2.49 274 2.71  50 2.83  27 2.96 388 3.02   3 3.03
                           153 3.20
  20  0.117  0.530  0.992- 251 2.38 350 2.43 211 2.70 387 2.92 194 2.98
  21  0.511  0.111  0.379- 320 2.42 275 2.47 241 2.54 134 2.94 214 3.09  45 3.15
  22  0.610  0.099  0.013- 253 2.41 269 2.59 205 2.77 213 2.82  57 3.17 113 3.22
  23  0.839  0.658  0.524- 348 2.41 240 2.48 263 2.58 247 2.69 144 2.92 160 3.06
  24  0.473  0.044  0.621- 333 2.43 279 2.49 344 2.51 214 2.80  98 2.90 406 2.95  58 3.05 177 3.14

  25  0.006  0.102  0.421- 245 2.44 324 2.52 204 2.73 210 2.84
  26  0.460  0.291  0.876- 370 2.39 381 2.41 242 2.53 222 2.75 413 2.88   2 2.90 178 2.95 186 3.07

  27  0.098  0.514  0.409- 274 2.43 349 2.44 300 2.56 212 2.80  19 2.96  43 3.02
  28  0.110  0.761  0.149- 308 2.37 314 2.49 267 2.53  75 2.91 219 2.98  83 3.22
  29  0.735  0.100  0.285- 229 2.43 340 2.47 316 2.62  37 2.76 275 2.79  45 2.94  54 3.07 109 3.23

  30  0.830  0.079  0.748- 230 2.42 325 2.52 341 2.55 207 2.82  96 3.26
  31  0.478  0.372  0.301- 304 2.44 276 2.60 221 2.72 198 2.74 407 2.99
  32  0.819  0.735  0.923- 239 2.39 343 2.46 248 2.53 203 2.96 152 2.99  95 3.13
  33  0.170  0.996  0.343- 225 2.44 302 2.54 351 2.59 204 2.81 123 2.95 137 3.26
  34  0.088  0.103  0.990- 273 2.44 265 2.45 249 2.53 209 2.76 154 2.87  36 3.14  10 3.25
  35  0.269  0.673  0.086- 235 2.42 345 2.45 251 2.56 314 2.66  11 2.99 131 3.22 172 3.23
  36  0.116  0.014  0.869- 273 2.40 303 2.44 352 2.47 156 2.99  34 3.14
  37  0.651  0.010  0.340- 275 2.47 306 2.48 355 2.53 229 2.64  29 2.76 159 3.01
  38  0.861  0.266  0.979- 237 2.35 246 2.42 361 2.42  61 2.89 196 2.94 409 2.99 133 3.30
  39  0.982  0.889  0.390- 384 2.39 367 2.47 302 2.50 183 2.92 210 2.97 191 3.18
  40  0.989  0.839  0.857- 368 2.46 303 2.54 203 2.72 220 2.94
  41  0.220  0.136  0.485- 234 2.38 257 2.50 250 2.52 204 2.83 169 3.02 386 3.07 130 3.27
  42  0.260  0.363  0.976- 233 2.36 350 2.42 373 2.54   2 2.85 381 2.97 387 3.05 170 3.05
  43  0.015  0.630  0.369- 326 2.42 274 2.46 247 2.50 143 2.86  27 3.02 219 3.37
  44  0.891  0.733  0.158- 347 2.40 298 2.44 363 2.48 127 2.87 219 2.97  79 3.06
  45  0.601  0.149  0.260- 275 2.39 332 2.44 316 2.48 221 2.80  29 2.94  86 3.00  21 3.15
  46  0.893  0.001  0.592- 380 2.44 283 2.51 207 2.69 210 2.78  76 3.28
  47  0.622  0.453  0.539- 310 2.39 353 2.42 256 2.58 216 2.76  70 2.82 392 2.94  15 3.01
  48  0.756  0.592  0.827- 343 2.43 232 2.45 264 2.54 202 2.82   8 2.84 120 3.14 104 3.28
  49  0.267  0.609  0.734- 228 2.33 339 2.43 315 2.57 193 2.93  90 3.04 396 3.05 100 3.24 116 3.29

  50  0.154  0.596  0.263- 274 2.40 330 2.50 314 2.50 227 2.80  19 2.83  65 3.04  11 3.20
  51  0.086  0.656  0.759- 331 2.42 315 2.47 194 2.75 220 2.76
  52  0.095  0.760  0.635- 309 2.41 268 2.42 315 2.55  80 2.85 220 2.94  92 3.08  76 3.24
  53  0.898  0.508  0.111- 347 2.36 280 2.47 377 2.56 211 2.90 119 2.98 111 3.03  73 3.23 127 3.25
                           103 3.26
  54  0.736  0.168  0.420- 238 2.45 275 2.52 261 2.56 340 2.58  29 3.07  86 3.07 134 3.22 158 3.27

  55  0.543  0.521  0.393- 304 2.41 322 2.47 216 2.71 199 2.81 407 2.97
  56  0.832  0.912  0.758- 230 2.39 299 2.48 283 2.54 203 2.85
  57  0.503  0.100  0.900- 321 2.37 242 2.53 205 2.72 213 2.77  22 3.17   5 3.21
  58  0.391  0.105  0.512- 344 2.38 257 2.46 241 2.51 214 2.90  24 3.05 122 3.29
  59  0.160  0.988  0.151- 308 2.47 249 2.52 328 2.61 123 2.65 225 2.72
  60  0.257  0.896  0.768- 226 2.33 295 2.46 287 2.50  84 2.95 396 2.97 208 3.10 147 3.26
  61  0.763  0.368  0.963- 354 2.39 237 2.39 377 2.59 196 2.80 125 2.89  38 2.89 391 2.97 133 3.26

  62  0.632  0.283  0.541- 238 2.47 270 2.54 310 2.59 369 2.60  94 2.70 414 3.06
  63  0.647  0.992  0.173- 311 2.42 332 2.44 229 2.54 175 2.61 253 2.67 180 3.22 109 3.30
  64  0.142  0.657  0.489- 274 2.42 268 2.42 252 2.55   3 2.68 236 2.72 116 2.98
  65  0.186  0.497  0.157- 227 2.43 251 2.53 200 2.74 330 2.75  50 3.04
  66  0.327  0.249  0.417- 234 2.43 241 2.54 336 2.55 198 2.90
  67  0.255  0.669  0.922- 235 2.38 260 2.48 339 2.50 194 2.89 148 3.05
  68  0.332  0.895  0.264- 382 2.42 294 2.42 225 2.53  91 2.61 278 2.69  17 2.94
  69  0.524  0.792  0.632- 360 2.42 272 2.46 224 2.74 195 2.74 416 2.93
  70  0.659  0.488  0.668- 310 2.47 232 2.49 335 2.52 256 2.57  47 2.82 173 2.83 104 3.11   8 3.28

  71  0.510  0.869  0.144- 311 2.36 278 2.45 359 2.45 180 2.91 223 3.01  87 3.10
  72  0.662  0.666  0.516- 240 2.42 272 2.50 256 2.59 144 3.00 199 3.02  16 3.24 192 3.26
  73  0.008  0.395  0.100- 361 2.44 280 2.48 200 2.68 211 2.96  53 3.23
  74  0.894  0.390  0.493- 383 2.34 378 2.45 362 2.47 165 2.93 212 3.04  82 3.07 189 3.26 161 3.28

  75  0.013  0.865  0.155- 308 2.36 282 2.41 363 2.54  28 2.91 219 3.16 121 3.24
  76  0.005  0.887  0.606- 309 2.43 364 2.49 283 2.50 140 3.03 210 3.05  52 3.24  80 3.26  46 3.28

  77  0.601  0.502  0.081- 255 2.45 334 2.65 215 2.76 206 2.76
  78  0.623  0.721  0.788- 291 2.40 319 2.42 224 2.69 202 2.70 400 2.87
  79  0.769  0.668  0.100- 347 2.44 239 2.46 318 2.53 255 2.62 119 3.01  99 3.03  44 3.06 168 3.12

  80  0.097  0.859  0.734- 303 2.40 309 2.42 287 2.46  52 2.85 220 2.92 147 3.11  76 3.26
  81  0.095  0.345  0.246- 284 2.43 300 2.48 200 2.71 217 2.84
  82  0.039  0.385  0.535- 365 2.43 362 2.48 212 2.71 201 2.72 410 2.95  74 3.07
  83  0.231  0.841  0.088- 308 2.42 235 2.52 375 2.54 294 2.64  28 3.22
  84  0.336  0.000  0.830- 226 2.41 321 2.43 258 2.51 208 2.79  60 2.95 156 2.96
  85  0.263  0.395  0.264- 227 2.43 284 2.47 292 2.52 153 3.04 393 3.05 198 3.05
  86  0.613  0.241  0.374- 275 2.40 369 2.44 288 2.46  45 3.00  54 3.07 221 3.14
  87  0.597  0.910  0.026- 311 2.35 356 2.46 372 2.56 213 2.98  71 3.10  95 3.20
  88  0.543  0.649  0.280- 322 2.46 334 2.58 223 2.69 199 2.80 407 3.08 149 3.16
  89  0.524  0.295  0.141- 357 2.45 269 2.57 221 2.70 206 2.77 413 2.98
  90  0.339  0.495  0.669- 228 2.43 374 2.49 277 2.52 193 2.88  49 3.04
  91  0.336  0.992  0.348- 382 2.50 257 2.51 320 2.55  68 2.61 225 2.69
  92  0.141  0.827  0.507- 367 2.42 236 2.44 309 2.52 114 2.66 351 2.66 140 2.96  52 3.08 155 3.12

  93  0.733  0.517  0.365- 231 2.34 353 2.43 263 2.50 199 2.94 392 2.99 149 3.01
  94  0.743  0.340  0.585- 238 2.44 310 2.48 378 2.55 297 2.57  62 2.70 173 3.04
  95  0.694  0.821  0.942- 239 2.35 356 2.61 291 2.62 372 2.63  32 3.13  87 3.20 152 3.25
  96  0.675  0.070  0.712- 230 2.31 333 2.44 317 2.48   6 2.87 176 2.91  30 3.26
  97  0.637  0.277  0.023- 237 2.35 370 2.46 269 2.55 206 2.98 413 3.09 125 3.13
  98  0.347  0.998  0.668- 226 2.44 279 2.44 376 2.61 138 2.62 344 2.66  24 2.90
  99  0.666  0.669  0.993- 239 2.38 271 2.53 255 2.54 202 2.76  79 3.03 168 3.09
 100  0.166  0.507  0.666- 228 2.45 252 2.50 331 2.57 201 2.87 146 3.08  49 3.24
 101  0.771  0.173  0.095- 346 2.46 237 2.57 316 2.61 253 2.69 109 3.15  14 3.25 125 3.28
 102  0.587  0.911  0.504- 355 2.47 371 2.49 195 2.76 214 2.78  16 3.20
 103  0.843  0.586  0.239- 347 2.41 231 2.48 326 2.56 342 2.57 111 3.19  53 3.26
 104  0.759  0.603  0.667- 348 2.42 319 2.44 232 2.57 256 2.65 136 2.67  70 3.11  48 3.28
 105  0.480  0.875  0.361- 306 2.35 382 2.36 371 2.48 163 2.81 187 3.08 223 3.18
 106  0.392  0.139  0.740- 344 2.38 321 2.41 337 2.44 177 2.95 222 3.02 138 3.22
 107  0.360  0.780  0.985- 235 2.37 359 2.43 244 2.54 208 2.97 171 3.10 415 3.10
 108  0.470  0.625  0.725- 335 2.40 323 2.52 224 2.78 193 2.78 408 2.92
 109  0.802  0.035  0.158- 346 2.44 229 2.48 379 2.53 253 2.69 175 3.06 101 3.15  29 3.23  63 3.30

 110  0.856  0.234  0.529- 238 2.40 245 2.49 362 2.55 207 2.93 158 2.99 410 3.08
 111  0.753  0.503  0.142- 231 2.31 377 2.42 255 2.43 391 3.01  53 3.03 149 3.11 103 3.19
 112  0.900  0.645  0.742- 348 2.34 327 2.43 343 2.45 160 2.86 220 3.02
 113  0.488  0.104  0.112- 332 2.34 269 2.49 197 2.71 213 2.79   5 3.16  22 3.22
 114  0.237  0.840  0.594- 295 2.47 309 2.50 376 2.52 236 2.60  92 2.66
 115  0.489  0.627  0.126- 345 2.36 334 2.45 271 2.49 131 2.99 172 3.03
 116  0.248  0.674  0.588- 236 2.40 252 2.48 315 2.58 193 2.79  64 2.98 179 3.23  49 3.29
 117  0.950  0.214  0.131- 346 2.38 361 2.45 265 2.62 217 2.86 409 3.00 184 3.03
 118  0.998  0.146  0.643- 266 2.44 329 2.49 207 2.77 218 2.83
 119  0.880  0.618  0.017- 347 2.33 248 2.40 264 2.46  53 2.98  79 3.01 166 3.22 211 3.29
 120  0.854  0.477  0.800- 232 2.43 327 2.52 281 2.70 196 2.77 136 3.00  48 3.14
 121  0.093  0.902  0.023- 308 2.37 368 2.49 352 2.51 209 2.92  75 3.24
 122  0.326  0.229  0.590- 234 2.44 344 2.59 293 2.62 358 2.69 177 2.97  58 3.29
 123  0.160  0.895  0.241- 308 2.39 286 2.42 225 2.54 302 2.63  59 2.65  33 2.95
 124  0.032  0.366  0.724- 281 2.49 301 2.50 218 2.75 201 2.83 404 2.98
 125  0.757  0.333  0.100- 237 2.40 296 2.44 377 2.71 206 2.81  61 2.89  97 3.13 101 3.28
 126  0.724  0.018  0.864- 230 2.42 356 2.49 262 2.55 205 2.95 135 3.30
 127  0.989  0.632  0.152- 347 2.41 330 2.44 267 2.52  44 2.87 219 3.00  53 3.25
 128  0.979  0.596  0.602- 348 2.37 268 2.54 331 2.57 212 2.91
 129  0.158  0.245  0.916- 233 2.41 366 2.43 273 2.52 285 2.57 154 2.72  18 2.90
 130  0.162  0.243  0.587- 234 2.42 266 2.48 313 2.56 201 2.89  12 3.19  41 3.27
 131  0.395  0.612  0.015- 345 2.34 260 2.45 244 2.52 215 2.90 115 2.99 164 3.21  35 3.22
 132  0.412  0.603  0.506- 243 2.47 259 2.52 216 2.81 193 2.82
 133  0.727  0.227  0.896- 237 2.41 341 2.51 289 2.61 205 2.82  61 3.26  38 3.30
 134  0.608  0.101  0.484- 275 2.42 254 2.46 270 2.54  21 2.94 214 2.95  54 3.22
 135  0.661  0.913  0.759- 230 2.42 307 2.49 291 2.52 195 2.86 176 3.05 126 3.30
 136  0.851  0.510  0.657- 348 2.42 378 2.46 281 2.49 104 2.67 232 2.71 120 3.00
 137  0.245  0.099  0.247- 225 2.36 336 2.46 312 2.49 393 3.04  17 3.20  33 3.26 197 3.37
 138  0.263  0.095  0.662- 313 2.40 344 2.45 226 2.45 250 2.57  98 2.62 147 3.09 106 3.22
 139  0.352  0.514  0.148- 345 2.43 373 2.51 276 2.62 227 2.72  11 2.74 153 3.04
 140  0.113  0.965  0.540- 250 2.44 309 2.46 351 2.48 210 2.71 147 2.95  92 2.96 386 2.97  76 3.03

 141  0.850  0.912  0.260- 384 2.40 282 2.43 159 2.59 298 2.60 229 2.68 175 3.08 183 3.17
 142  0.876  0.271  0.779- 341 2.43 297 2.46 218 2.71 196 2.76 398 2.91
 143  0.107  0.733  0.347- 286 2.40 274 2.41 367 2.53  43 2.86 219 2.92   3 3.27
 144  0.759  0.675  0.407- 240 2.34 342 2.40 263 2.70 199 2.81  23 2.92  72 3.00  16 3.15
 145  0.679  0.412  0.253- 231 2.43 288 2.49 304 2.55 206 2.84
 146  0.227  0.386  0.731- 228 2.35 285 2.46 293 2.47 201 2.86 394 2.96 100 3.08
 147  0.161  0.984  0.675- 226 2.44 329 2.57 309 2.64 250 2.65 140 2.95 138 3.09  80 3.11  60 3.26

 148  0.137  0.731  0.988- 235 2.35 267 2.44 368 2.44 194 3.01 411 3.01  67 3.05 171 3.23
 149  0.681  0.587  0.246- 231 2.39 318 2.49 334 2.61 199 2.93  93 3.01 111 3.11  88 3.16
 150  0.318  0.249  0.085- 233 2.37 357 2.52 292 2.56 197 2.83 185 3.15
 151  0.832  0.833  0.477- 384 2.44 240 2.55 364 2.60 380 2.61  16 3.27 191 3.27
 152  0.826  0.834  0.030- 239 2.38 379 2.45 363 2.51  32 2.99 203 3.10  95 3.25
 153  0.369  0.495  0.294- 227 2.42 322 2.46 276 2.59 198 2.86 139 3.04  85 3.04 407 3.04  19 3.20
                            11 3.25
 154  0.222  0.140  0.968- 233 2.37 258 2.42 249 2.51 273 2.61 129 2.72  34 2.87 385 3.03 156 3.14

 155  0.260  0.838  0.412- 382 2.39 351 2.56 286 2.56 236 2.59 179 3.11  92 3.12
 156  0.227  0.095  0.821- 226 2.44 273 2.48 337 2.51 258 2.80  84 2.96  36 2.99  18 3.11 154 3.14

 157  0.840  0.409  0.271- 383 2.44 231 2.52 296 2.56 280 2.72 165 3.20
 158  0.738  0.163  0.579- 238 2.40 317 2.52 254 2.55 207 2.86 110 2.99  54 3.27
 159  0.755  0.906  0.344- 384 2.43 355 2.49 229 2.50 290 2.51 141 2.59  37 3.01 183 3.22  16 3.24

 160  0.890  0.740  0.639- 348 2.38 364 2.45 299 2.48 112 2.86 220 3.04  23 3.06
 161  0.987  0.367  0.365- 383 2.36 300 2.44 365 2.48 181 2.84 217 3.19 165 3.21  74 3.28
 162  0.324  0.477  0.845- 228 2.50 381 2.52 260 2.61 323 2.80 186 3.15 178 3.21   4 3.22
 163  0.395  0.767  0.347- 382 2.38 338 2.41 243 2.49 105 2.81 223 2.85 179 3.30
 164  0.501  0.601  0.899- 244 2.49 323 2.52 202 2.70 215 2.83 131 3.21
 165  0.895  0.491  0.392- 383 2.38 326 2.48 263 2.53 212 2.90  74 2.93 157 3.20 161 3.21
 166  0.996  0.605  0.912- 248 2.41 327 2.43 194 2.74 211 2.84 119 3.22
 167  0.373  0.780  0.779- 295 2.41 339 2.42 224 2.67 208 2.74 396 2.90
 168  0.662  0.776  0.099- 311 2.40 239 2.53 318 2.60 271 2.65  99 3.09  79 3.12 175 3.23
 169  0.164  0.254  0.417- 234 2.43 365 2.49 284 2.52 204 2.87  41 3.02
 170  0.404  0.396  0.997- 381 2.43 357 2.48 373 2.48 186 2.84 215 2.91  42 3.05
 171  0.235  0.835  0.920- 235 2.38 352 2.45 287 2.59 208 2.89 107 3.10 148 3.23
 172  0.397  0.740  0.151- 345 2.37 294 2.47 359 2.53 223 2.87 115 3.03  35 3.23
 173  0.735  0.388  0.726- 232 2.44 297 2.45 289 2.55  70 2.83 310 2.90 190 3.00 398 3.01  94 3.04
                             8 3.30
 174  0.899  0.994  0.906- 262 2.48 325 2.50 203 2.70 209 2.78  14 3.26
 175  0.736  0.901  0.163- 311 2.38 298 2.45 229 2.54 379 2.55  63 2.61 109 3.06 141 3.08 180 3.20
                           168 3.23
 176  0.734  0.963  0.638- 230 2.39 380 2.41 254 2.58 195 2.82  96 2.91 390 3.05 135 3.05
 177  0.462  0.197  0.628- 344 2.40 270 2.41 358 2.55 222 2.77 106 2.95 414 2.96 122 2.97  24 3.14

 178  0.386  0.355  0.769- 381 2.41 293 2.46 277 2.47  26 2.95 222 2.97 162 3.21
 179  0.352  0.757  0.502- 236 2.40 360 2.43 243 2.47 416 3.02 155 3.11 116 3.23 187 3.27 163 3.30

 180  0.610  0.857  0.245- 311 2.35 290 2.46 306 2.55  71 2.91 223 3.00 175 3.20  63 3.22
 181  0.891  0.266  0.359- 383 2.36 340 2.43 245 2.46 161 2.84 217 2.92 189 3.20
 182  0.963  0.047  0.129- 346 2.39 282 2.46 328 2.51 209 2.84  14 2.94 401 2.98
 183  0.880  0.989  0.392- 384 2.34 261 2.41 324 2.51  39 2.92 210 3.11 141 3.17 159 3.22
 184  0.893  0.139  0.245- 346 2.37 324 2.51 340 2.53 117 3.03 217 3.10
 185  0.164  0.250  0.080- 233 2.41 265 2.49 312 2.65 200 2.79 150 3.15
 186  0.469  0.441  0.883- 381 2.43 305 2.45 323 2.58 170 2.84 215 2.84 408 2.97  26 3.07 162 3.15

 187  0.397  0.909  0.483- 382 2.37 376 2.47 360 2.49 214 2.89 105 3.08 179 3.27
 188  0.500  0.861  0.861- 307 2.42 372 2.45 208 2.83 224 3.04
 189  0.765  0.336  0.418- 383 2.49 238 2.49 288 2.58 353 2.61 181 3.20  74 3.26
 190  0.597  0.338  0.729- 310 2.37 289 2.45 305 2.51 222 2.88 173 3.00  15 3.07
 191  0.895  0.768  0.344- 384 2.36 342 2.46 247 2.60 219 3.02  39 3.18 151 3.27
 192  0.726  0.780  0.607- 240 2.38 299 2.52 319 2.55 195 2.83 400 3.09  72 3.26
 193  0.369  0.629  0.634- 108 2.78 116 2.79 132 2.82  90 2.88  49 2.93
 194  0.126  0.628  0.884- 166 2.74  51 2.75  67 2.89   4 2.89  20 2.98 148 3.01
 195  0.628  0.876  0.628-  69 2.74 102 2.76 176 2.82 192 2.83 135 2.86
 196  0.869  0.365  0.875- 142 2.76   7 2.76 120 2.77  61 2.80  38 2.94
 197  0.358  0.123  0.129- 113 2.71   5 2.77  17 2.82 150 2.83  13 2.86 137 3.37
 198  0.364  0.379  0.372-   9 2.72  31 2.74 153 2.86  66 2.90  85 3.05
 199  0.636  0.622  0.377-  88 2.80  55 2.81 144 2.81 149 2.93  93 2.94  72 3.02
 200  0.136  0.377  0.124-  73 2.68  81 2.71  65 2.74 185 2.79
 201  0.132  0.375  0.629-  82 2.72 124 2.83 146 2.86 100 2.87 130 2.89  12 3.09
 202  0.629  0.620  0.872-  78 2.70 164 2.70  99 2.76  48 2.82   8 2.89
 203  0.863  0.869  0.887- 174 2.70  40 2.72  56 2.85  32 2.96 152 3.10
 204  0.131  0.123  0.380-  25 2.73   1 2.75  33 2.81  41 2.83 169 2.87
 205  0.632  0.128  0.882-  57 2.72   6 2.74  22 2.77 133 2.82 126 2.95
 206  0.630  0.379  0.127-  77 2.76  89 2.77 125 2.81 145 2.84  97 2.98
 207  0.866  0.126  0.623-  46 2.69 118 2.77  30 2.82 158 2.86 110 2.93
 208  0.363  0.874  0.874- 167 2.74  84 2.79 188 2.83 171 2.89 107 2.97  60 3.10
 209  0.996  0.005  0.001-  34 2.76 174 2.78 182 2.84 121 2.92  14 2.98
 210  0.989  0.988  0.497- 140 2.71  46 2.78  25 2.84  39 2.97  76 3.05 183 3.11
 211  0.989  0.500  0.002-  20 2.70 166 2.84   7 2.87  53 2.90  73 2.96 119 3.29
 212  0.992  0.503  0.495-  82 2.71  27 2.80 165 2.90 128 2.91  74 3.04
 213  0.499  0.017  0.008-  57 2.77 113 2.79  22 2.82   5 2.84  87 2.98
 214  0.495  0.011  0.491- 102 2.78  24 2.80 187 2.89  58 2.90 134 2.95  21 3.09
 215  0.492  0.509  0.002-  77 2.76 164 2.83 186 2.84 131 2.90 170 2.91
 216  0.496  0.494  0.513-  55 2.71  47 2.76   9 2.77 132 2.81  15 3.08
 217  0.993  0.253  0.259-   1 2.75  81 2.84 117 2.86 181 2.92 184 3.10 161 3.19
 218  0.000  0.237  0.748-  18 2.71 142 2.71 124 2.75 118 2.83  10 2.97
 219  0.004  0.742  0.248- 143 2.92  44 2.97  28 2.98 127 3.00 191 3.02  75 3.16  43 3.37
 220  0.998  0.756  0.740-  51 2.76  80 2.92  52 2.94  40 2.94 112 3.02 160 3.04
 221  0.506  0.248  0.263-  89 2.70  31 2.72  13 2.72  45 2.80  86 3.14
 222  0.487  0.252  0.750-   6 2.70  26 2.75 177 2.77 190 2.88 178 2.97 106 3.02
 223  0.494  0.767  0.249-  88 2.69 163 2.85 172 2.87 180 3.00  71 3.01 105 3.18
 224  0.499  0.753  0.758- 167 2.67  78 2.69  69 2.74 108 2.78 188 3.04
 225  0.246  0.983  0.252- 137 2.36  33 2.44  17 2.44  68 2.53 123 2.54  91 2.69  59 2.72
 226  0.255  0.008  0.744-  60 2.33  84 2.41  98 2.44 156 2.44 147 2.44 138 2.45
 227  0.262  0.512  0.246-  11 2.38 153 2.42  85 2.43  65 2.43  19 2.43 139 2.72  50 2.80
 228  0.251  0.496  0.749-  49 2.33 146 2.35   4 2.38  90 2.43 100 2.45 162 2.50
 229  0.743  0.987  0.252-  29 2.43 109 2.48 159 2.50 175 2.54  63 2.54  37 2.64 141 2.68
 230  0.748  0.993  0.751-  96 2.31 176 2.39  56 2.39  30 2.42 126 2.42 135 2.42
 231  0.759  0.500  0.254- 111 2.31  93 2.34 149 2.39 145 2.43 103 2.48 157 2.52
 232  0.752  0.505  0.745- 120 2.43 173 2.44  48 2.45  70 2.49   8 2.52 104 2.57 136 2.71
 233  0.245  0.250  0.995-  42 2.36 154 2.37 150 2.37   2 2.40 129 2.41 185 2.41
 234  0.245  0.248  0.503-  41 2.38  12 2.39 130 2.42  66 2.43 169 2.43 122 2.44
 235  0.249  0.754  0.002- 148 2.35 107 2.37 171 2.38  67 2.38  35 2.42  83 2.52
 236  0.234  0.753  0.501- 179 2.40 116 2.40  92 2.44   3 2.51 155 2.59 114 2.60  64 2.72
 237  0.749  0.260  0.008-  38 2.35  97 2.35  61 2.39 125 2.40 133 2.41 101 2.57
 238  0.742  0.253  0.504- 158 2.40 110 2.40  94 2.44  54 2.45  62 2.47 189 2.49
 239  0.748  0.749  0.014-  95 2.35  99 2.38 152 2.38  32 2.39  79 2.46 168 2.53
 240  0.753  0.740  0.501- 144 2.34  16 2.35 192 2.38  72 2.42  23 2.48 151 2.55
 241  0.435  0.191  0.437- 414 2.06  58 2.51  21 2.54  66 2.54
 242  0.434  0.192  0.945- 413 2.07  57 2.53  26 2.53   5 2.56   2 2.70
 243  0.438  0.700  0.439- 416 2.08 179 2.47 132 2.47 163 2.49
 244  0.447  0.700  0.946- 415 2.07 164 2.49 131 2.52 107 2.54
 245  0.937  0.197  0.446- 410 2.06  25 2.44 181 2.46 110 2.49
 246  0.945  0.191  0.944- 409 2.08  38 2.42  10 2.46  14 2.51
 247  0.932  0.689  0.436- 412 2.04  43 2.50 191 2.60  23 2.69
 248  0.934  0.698  0.950- 411 2.07 119 2.40 166 2.41  32 2.53
 249  0.185  0.060  0.053- 385 2.05 154 2.51  59 2.52  34 2.53
 250  0.193  0.049  0.568- 386 2.07 140 2.44  41 2.52 138 2.57 147 2.65
 251  0.204  0.570  0.059- 387 2.06  20 2.38  65 2.53  35 2.56
 252  0.191  0.570  0.564- 388 2.06 116 2.48 100 2.50  64 2.55
 253  0.702  0.062  0.077- 389 2.08  22 2.41  63 2.67 109 2.69 101 2.69
 254  0.688  0.050  0.559- 390 2.07 134 2.46 158 2.55 176 2.58
 255  0.698  0.569  0.060- 391 2.10 111 2.43  77 2.45  99 2.54  79 2.62
 256  0.693  0.554  0.566- 392 2.07  70 2.57  47 2.58  72 2.59 104 2.65
 257  0.302  0.053  0.448- 386 2.05  58 2.46  41 2.50  91 2.51
 258  0.294  0.053  0.932- 385 2.10   5 2.40 154 2.42  84 2.51 156 2.80
 259  0.308  0.573  0.447- 388 2.06  19 2.49 132 2.52   3 2.60
 260  0.317  0.566  0.937- 387 2.06 131 2.45  67 2.48 162 2.61
 261  0.798  0.060  0.437- 390 2.02 183 2.41  54 2.56
 262  0.805  0.057  0.950- 389 2.07 174 2.48  14 2.51 126 2.55
 263  0.810  0.561  0.449- 392 2.07  93 2.50 165 2.53  23 2.58 144 2.70
 264  0.809  0.564  0.936- 391 2.04 119 2.46  48 2.54
 265  0.057  0.193  0.063- 409 2.06  34 2.45 185 2.49 117 2.62
 266  0.061  0.186  0.550- 410 2.04 118 2.44 130 2.48
 267  0.054  0.690  0.064- 411 2.06 148 2.44 127 2.52  28 2.53
 268  0.048  0.688  0.554- 412 2.07  52 2.42  64 2.42 128 2.54
 269  0.552  0.197  0.067- 413 2.08 113 2.49  97 2.55  89 2.57  22 2.59
 270  0.552  0.188  0.553- 414 2.06 177 2.41 134 2.54  62 2.54
 271  0.567  0.696  0.062- 415 2.04 115 2.49  99 2.53 168 2.65
 272  0.552  0.702  0.557- 416 2.03  69 2.46  72 2.50
 273  0.128  0.130  0.881-  36 2.40  18 2.41  34 2.44  10 2.45 156 2.48 129 2.52 154 2.61
 274  0.135  0.622  0.376-  50 2.40 143 2.41  64 2.42  27 2.43  43 2.46   3 2.53  19 2.71
 275  0.631  0.125  0.370-  45 2.39  86 2.40 134 2.42  37 2.47  21 2.47  54 2.52  29 2.79
 276  0.445  0.447  0.204- 407 2.04 153 2.59  31 2.60 139 2.62
 277  0.441  0.430  0.692- 408 2.07 178 2.47  15 2.49  90 2.52
 278  0.432  0.945  0.194- 405 2.05  71 2.45  17 2.56  68 2.69
 279  0.452  0.947  0.693- 406 2.03  98 2.44  24 2.49
 280  0.946  0.436  0.196- 403 2.06  53 2.47  73 2.48 157 2.72
 281  0.940  0.443  0.706- 404 2.04 124 2.49 136 2.49 120 2.70
 282  0.944  0.950  0.199- 401 2.06  75 2.41 141 2.43 182 2.46
 283  0.933  0.940  0.690- 402 2.06  76 2.50  46 2.51  56 2.54
 284  0.189  0.311  0.310- 393 2.06  81 2.43  85 2.47 169 2.52
 285  0.191  0.300  0.808- 394 2.05 146 2.46  18 2.54 129 2.57
 286  0.193  0.806  0.312- 395 2.05 143 2.40 123 2.42 155 2.56
 287  0.179  0.813  0.809- 396 2.05  80 2.46  60 2.50 171 2.59
 288  0.694  0.309  0.317- 397 2.06  86 2.46 145 2.49 189 2.58
 289  0.686  0.302  0.802- 398 2.06 190 2.45 173 2.55 133 2.61
 290  0.693  0.804  0.315- 399 2.05 180 2.46 159 2.51  16 2.55
 291  0.697  0.809  0.814- 400 2.06  78 2.40 135 2.52  95 2.62
 292  0.308  0.300  0.198- 393 2.05  85 2.52  13 2.56 150 2.56
 293  0.308  0.304  0.693- 394 2.05 178 2.46 146 2.47 122 2.62
 294  0.304  0.808  0.189- 395 2.05  68 2.42 172 2.47  83 2.64
 295  0.296  0.809  0.695- 396 2.05 167 2.41  60 2.46 114 2.47
 296  0.813  0.308  0.202- 397 2.03 125 2.44 157 2.56
 297  0.803  0.298  0.687- 398 2.06 173 2.45 142 2.46  94 2.57
 298  0.809  0.811  0.195- 399 2.06  44 2.44 175 2.45 141 2.60
 299  0.809  0.813  0.693- 400 2.05 160 2.48  56 2.48 192 2.52
 300  0.063  0.442  0.312- 403 2.06 161 2.44  81 2.48  27 2.56
 301  0.062  0.446  0.811- 404 2.06 124 2.50   7 2.52   4 2.53
 302  0.064  0.938  0.314- 401 2.05  39 2.50  33 2.54 123 2.63
 303  0.048  0.936  0.808- 402 2.08  80 2.40  36 2.44  40 2.54
 304  0.571  0.445  0.307- 407 2.06  55 2.41  31 2.44 145 2.55
 305  0.560  0.427  0.806- 408 2.06 186 2.45 190 2.51   8 2.51
 306  0.552  0.947  0.309- 405 2.07 105 2.35  37 2.48 180 2.55
 307  0.562  0.953  0.818- 406 2.04 188 2.42 135 2.49
 308  0.126  0.874  0.131-  75 2.36 121 2.37  28 2.37 123 2.39  83 2.42  59 2.47
 309  0.122  0.874  0.619-  52 2.41  80 2.42  76 2.43 140 2.46 114 2.50  92 2.52 147 2.64
 310  0.634  0.377  0.627- 190 2.37  47 2.39  15 2.44  70 2.47  94 2.48  62 2.59 173 2.90
 311  0.625  0.882  0.134-  87 2.35 180 2.35  71 2.36 175 2.38 168 2.40  63 2.42
 312  0.185  0.191  0.193- 393 2.06   1 2.46 137 2.49 185 2.65
 313  0.195  0.185  0.693- 394 2.06 138 2.40  18 2.43 130 2.56
 314  0.197  0.687  0.193- 395 2.07  28 2.49  50 2.50  11 2.63  35 2.66
 315  0.181  0.691  0.694- 396 2.08  51 2.47  52 2.55  49 2.57 116 2.58
 316  0.699  0.189  0.199- 397 2.06  45 2.48 101 2.61  29 2.62
 317  0.679  0.188  0.685- 398 2.06   6 2.45  96 2.48 158 2.52
 318  0.692  0.696  0.193- 399 2.06 149 2.49  79 2.53 168 2.60
 319  0.694  0.698  0.696- 400 2.06  78 2.42 104 2.44 192 2.55
 320  0.430  0.063  0.306- 405 2.03  21 2.42  91 2.55
 321  0.438  0.059  0.813- 406 2.08  57 2.37 106 2.41  84 2.43
 322  0.463  0.567  0.315- 407 2.06  88 2.46 153 2.46  55 2.47
 323  0.441  0.541  0.810- 408 2.09 164 2.52 108 2.52 186 2.58 162 2.80
 324  0.950  0.060  0.319- 401 2.07 183 2.51 184 2.51  25 2.52
 325  0.936  0.056  0.807- 402 2.07 174 2.50  30 2.52  10 2.54
 326  0.946  0.558  0.304- 403 2.06  43 2.42 165 2.48 103 2.56
 327  0.942  0.562  0.815- 404 2.06 112 2.43 166 2.43 120 2.52
 328  0.064  0.057  0.199- 401 2.06   1 2.43 182 2.51  59 2.61
 329  0.056  0.051  0.693- 402 2.03 118 2.49 147 2.57
 330  0.067  0.550  0.191- 403 2.06 127 2.44  50 2.50  65 2.75
 331  0.056  0.561  0.694- 404 2.06  51 2.42 100 2.57 128 2.57
 332  0.552  0.061  0.196- 405 2.08 113 2.34  45 2.44  63 2.44
 333  0.556  0.071  0.702- 406 2.08  24 2.43  96 2.44   6 2.46
 334  0.568  0.564  0.191- 407 2.08 115 2.45  88 2.58 149 2.61  77 2.65
 335  0.557  0.550  0.696- 408 2.02 108 2.40  70 2.52
 336  0.295  0.186  0.314- 393 2.07  13 2.40 137 2.46  66 2.55
 337  0.309  0.187  0.811- 394 2.06 106 2.44 156 2.51   2 2.52
 338  0.311  0.693  0.309- 395 2.05 163 2.41  11 2.42   3 2.48
 339  0.296  0.695  0.810- 396 2.05 167 2.42  49 2.43  67 2.50
 340  0.808  0.191  0.319- 397 2.10 181 2.43  29 2.47 184 2.53  54 2.58
 341  0.797  0.185  0.804- 398 2.06 142 2.43 133 2.51  30 2.55
 342  0.813  0.689  0.304- 399 2.06 144 2.40 191 2.46 103 2.57
 343  0.815  0.694  0.810- 400 2.07  48 2.43 112 2.45  32 2.46
 344  0.375  0.119  0.627- 106 2.38  58 2.38 177 2.40 138 2.45  24 2.51 122 2.59  98 2.66
 345  0.374  0.629  0.126- 131 2.34 115 2.36 172 2.37  11 2.39 139 2.43  35 2.45
 346  0.876  0.125  0.131-  14 2.37 184 2.37 117 2.38 182 2.39 109 2.44 101 2.46
 347  0.874  0.619  0.131- 119 2.33  53 2.36  44 2.40 103 2.41 127 2.41  79 2.44
 348  0.871  0.625  0.633- 112 2.34 128 2.37 160 2.38  23 2.41 136 2.42 104 2.42
 349  0.195  0.455  0.445- 388 2.06  27 2.44  19 2.49  12 2.50
 350  0.196  0.456  0.941- 387 2.07  42 2.42  20 2.43   4 2.50
 351  0.190  0.934  0.452- 386 2.08 140 2.48 155 2.56  33 2.59  92 2.66
 352  0.177  0.938  0.941- 385 2.07 171 2.45  36 2.47 121 2.51
 353  0.698  0.441  0.449- 392 2.05  47 2.42  93 2.43 189 2.61
 354  0.685  0.452  0.944- 391 2.03  61 2.39   8 2.53
 355  0.683  0.940  0.437- 390 2.09 102 2.47 159 2.49  37 2.53  16 2.79
 356  0.688  0.948  0.957- 389 2.06  87 2.46 126 2.49  95 2.61
 357  0.428  0.302  0.069- 413 2.06  89 2.45 170 2.48 150 2.52
 358  0.434  0.299  0.561- 414 2.09 177 2.55   9 2.56  15 2.57 122 2.69
 359  0.446  0.810  0.062- 415 2.06 107 2.43  71 2.45 172 2.53
 360  0.441  0.819  0.552- 416 2.07  69 2.42 179 2.43 187 2.49
 361  0.941  0.307  0.055- 409 2.07  38 2.42  73 2.44 117 2.45
 362  0.949  0.308  0.563- 410 2.06  74 2.47  82 2.48 110 2.55
 363  0.937  0.808  0.075- 411 2.04  44 2.48 152 2.51  75 2.54
 364  0.934  0.807  0.550- 412 2.05 160 2.45  76 2.49 151 2.60
 365  0.060  0.311  0.444- 410 2.07  82 2.43 161 2.48 169 2.49
 366  0.062  0.309  0.944- 409 2.03   7 2.42 129 2.43
 367  0.052  0.800  0.434- 412 2.06  92 2.42  39 2.47 143 2.53
 368  0.052  0.809  0.955- 411 2.06 148 2.44  40 2.46 121 2.49
 369  0.551  0.312  0.447- 414 2.03  86 2.44  62 2.60
 370  0.544  0.312  0.953- 413 2.03  26 2.39  97 2.46
 371  0.556  0.816  0.435- 416 2.06 105 2.48 102 2.49  16 2.54
 372  0.566  0.816  0.950- 415 2.07 188 2.45  87 2.56  95 2.63
 373  0.310  0.445  0.055- 387 2.05 170 2.48 139 2.51  42 2.54
 374  0.304  0.450  0.561- 388 2.06  12 2.48   9 2.49  90 2.49
 375  0.298  0.939  0.052- 385 2.02  17 2.51  83 2.54
 376  0.312  0.933  0.565- 386 2.04 187 2.47 114 2.52  98 2.61
 377  0.807  0.446  0.052- 391 2.09 111 2.42  53 2.56  61 2.59 125 2.71
 378  0.813  0.441  0.566- 392 2.05  74 2.45 136 2.46  94 2.55
 379  0.811  0.945  0.074- 389 2.04 152 2.45 109 2.53 175 2.55
 380  0.803  0.935  0.548- 390 2.06 176 2.41  46 2.44 151 2.61
 381  0.373  0.371  0.885- 178 2.41  26 2.41 170 2.43 186 2.43 162 2.52   2 2.53  42 2.97
 382  0.365  0.876  0.376- 105 2.36 187 2.37 163 2.38 155 2.39  68 2.42  91 2.50
 383  0.873  0.378  0.381-  74 2.34 181 2.36 161 2.36 165 2.38 157 2.44 189 2.49
 384  0.867  0.877  0.371- 183 2.34 191 2.36  39 2.39 141 2.40 159 2.43 151 2.44
 385  0.238  0.995  0.997- 375 2.02 249 2.05 352 2.07 258 2.10 154 3.03
 386  0.252  0.991  0.509- 376 2.04 257 2.05 250 2.07 351 2.08 140 2.97  41 3.07
 387  0.259  0.510  0.998- 373 2.05 260 2.06 251 2.06 350 2.07  20 2.92  42 3.05
 388  0.250  0.514  0.505- 349 2.06 259 2.06 374 2.06 252 2.06  19 3.02  12 3.11
 389  0.752  1.000  0.015- 379 2.04 356 2.06 262 2.07 253 2.08
 390  0.745  0.998  0.494- 261 2.02 380 2.06 254 2.07 355 2.09 176 3.05
 391  0.750  0.509  0.994- 354 2.03 264 2.04 377 2.09 255 2.10  61 2.97 111 3.01
 392  0.755  0.499  0.508- 378 2.05 353 2.05 263 2.07 256 2.07  47 2.94  93 2.99
 393  0.243  0.248  0.254- 292 2.05 312 2.06 284 2.06 336 2.07  13 2.97 137 3.04  85 3.05
 394  0.253  0.244  0.751- 285 2.05 293 2.05 337 2.06 313 2.06  18 2.91 146 2.96
 395  0.251  0.750  0.251- 294 2.05 286 2.05 338 2.05 314 2.07  11 2.98
 396  0.236  0.753  0.753- 287 2.05 295 2.05 339 2.05 315 2.08 167 2.90  60 2.97  49 3.05
 397  0.752  0.251  0.257- 296 2.03 316 2.06 288 2.06 340 2.10
 398  0.741  0.242  0.743- 297 2.06 341 2.06 289 2.06 317 2.06 142 2.91 173 3.01
 399  0.752  0.751  0.253- 290 2.05 318 2.06 298 2.06 342 2.06
 400  0.755  0.754  0.754- 299 2.05 319 2.06 291 2.06 343 2.07  78 2.87 192 3.09
 401  0.007  0.000  0.260- 302 2.05 328 2.06 282 2.06 324 2.07 182 2.98
 402  0.993  0.997  0.747- 329 2.03 283 2.06 325 2.07 303 2.08
 403  0.006  0.497  0.250- 330 2.06 280 2.06 326 2.06 300 2.06
 404  0.001  0.504  0.757- 281 2.04 327 2.06 301 2.06 331 2.06 124 2.98
 405  0.490  0.004  0.252- 320 2.03 278 2.05 306 2.07 332 2.08
 406  0.503  0.004  0.757- 279 2.03 307 2.04 333 2.08 321 2.08  24 2.95
 407  0.511  0.505  0.252- 276 2.04 304 2.06 322 2.06 334 2.08  55 2.97  31 2.99 153 3.04  88 3.08

 408  0.502  0.487  0.749- 335 2.02 305 2.06 277 2.07 323 2.09 108 2.92 186 2.97
 409  0.005  0.251  1.000- 366 2.03 265 2.06 361 2.07 246 2.08  38 2.99 117 3.00
 410  0.003  0.250  0.501- 266 2.04 245 2.06 362 2.06 365 2.07  82 2.95 110 3.08
 411  0.993  0.752  0.013- 363 2.04 368 2.06 267 2.06 248 2.07 148 3.01
 412  0.991  0.746  0.494- 247 2.04 364 2.05 367 2.06 268 2.07
 413  0.489  0.250  0.007- 370 2.03 357 2.06 242 2.07 269 2.08  26 2.88  89 2.98  97 3.09
 414  0.494  0.247  0.496- 369 2.03 241 2.06 270 2.06 358 2.09 177 2.96  62 3.06
 415  0.508  0.754  0.006- 271 2.04 359 2.06 372 2.07 244 2.07 107 3.10
 416  0.499  0.758  0.495- 272 2.03 371 2.06 360 2.07 243 2.08  69 2.93 179 3.02
 

IMPORTANT INFORMATION: All symmetrisations will be switched off!
NOSYMM: (Re-)initialisation of all symmetry stuff for point group C_1.

 
 
 KPOINTS: Title                                   

Automatic generation of k-mesh.
Space group operators:
 irot       det(A)        alpha          n_x          n_y          n_z        tau_x        tau_y        tau_z
    1     1.000000     0.000000     1.000000     0.000000     0.000000     0.000000     0.000000     0.000000
 
 Subroutine IBZKPT returns following result:
 ===========================================
 
 Found      1 irreducible k-points:
 
 Following reciprocal coordinates:
            Coordinates               Weight
  0.000000  0.000000  0.000000      1.000000
 
 Following cartesian coordinates:
            Coordinates               Weight
  0.000000  0.000000  0.000000      1.000000
 


--------------------------------------------------------------------------------------------------------




 Dimension of arrays:
   k-points           NKPTS =      1   k-points in BZ     NKDIM =      1   number of bands    NBANDS=   1008
   number of dos      NEDOS =   3001   number of ions     NIONS =    416
   non local maximal  LDIM  =      5   non local SUM 2l+1 LMDIM =     13
   total plane-waves  NPLWV = 592704
   max r-space proj   IRMAX =   1611   max aug-charges    IRDMAX=  32347
   dimension x,y,z NGX =    84 NGY =   84 NGZ =   84
   dimension x,y,z NGXF=   168 NGYF=  168 NGZF=  168
   support grid    NGXF=   336 NGYF=  336 NGZF=  336
   ions per type =             192  32 160  32
   NGX,Y,Z   is equivalent  to a cutoff of   6.83,  6.83,  6.83 a.u.
   NGXF,Y,Z  is equivalent  to a cutoff of  13.67, 13.67, 13.67 a.u.

 SYSTEM =  LTO                                     
 POSCAR =  Li192 P32 S160 I32                      

 Startparameter for this run:
   NWRITE =      2    write-flag & timer
   PREC   = normal    normal or accurate (medium, high low for compatibility)
   ISTART =      0    job   : 0-new  1-cont  2-samecut
   ICHARG =      2    charge: 1-file 2-atom 10-const
   ISPIN  =      1    spin polarized calculation?
   LNONCOLLINEAR =      F non collinear calculations
   LSORBIT =      F    spin-orbit coupling
   INIWAV =      1    electr: 0-lowe 1-rand  2-diag
   LASPH  =      T    aspherical Exc in radial PAW
   METAGGA=      F    non-selfconsistent MetaGGA calc.

 Electronic Relaxation 1
   ENCUT  =  280.0 eV  20.58 Ry    4.54 a.u.  27.88 27.88 27.88*2*pi/ulx,y,z
   ENINI  =  280.0     initial cutoff
   ENAUG  =  370.1 eV  augmentation charge cutoff
   NELM   =     60;   NELMIN=  4; NELMDL=  0     # of ELM steps 
   EDIFF  = 0.1E-03   stopping-criterion for ELM
   LREAL  =      T    real-space projection
   NLSPLINE    = F    spline interpolate recip. space projectors
   LCOMPAT=      F    compatible to vasp.4.4
   GGA_COMPAT  = T    GGA compatible to vasp.4.4-vasp.4.6
   LMAXPAW     = -100 max onsite density
   LMAXMIX     =    4 max onsite mixed and CHGCAR
   VOSKOWN=      0    Vosko Wilk Nusair interpolation
   ROPT   =   -0.00010  -0.00010  -0.00010  -0.00010
 Ionic relaxation
   EDIFFG = -.5E-01   stopping-criterion for IOM
   NSW    =   1000    number of steps for IOM
   NBLOCK =      1;   KBLOCK =   1000    inner block; outer block 
   IBRION =      2    ionic relax: 0-MD 1-quasi-New 2-CG
   NFREE  =      1    steps in history (QN), initial steepest desc. (CG)
   ISIF   =      2    stress and relaxation
   IWAVPR =     11    prediction:  0-non 1-charg 2-wave 3-comb
   ISYM   =      0    0-nonsym 1-usesym 2-fastsym
   LCORR  =      T    Harris-Foulkes like correction to forces

   POTIM  = 0.5000    time-step for ionic-motion
   TEIN   =    0.0    initial temperature
   TEBEG  =    0.0;   TEEND  =   0.0 temperature during run
   SMASS  =  -3.00    Nose mass-parameter (am)
   estimated Nose-frequenzy (Omega)   =  0.10E-29 period in steps =****** mass=  -0.954E-26a.u.
   SCALEE = 1.0000    scale energy and forces
   NPACO  =    256;   APACO  = 16.0  distance and # of slots for P.C.
   PSTRESS=    0.0 pullay stress

  Mass of Ions in am
   POMASS =   7.01126.90 32.07 30.97
  Ionic Valenz
   ZVAL   =   1.00  7.00  6.00  5.00
  Atomic Wigner-Seitz radii
   RWIGS  =  -1.00 -1.00 -1.00 -1.00
  virtual crystal weights 
   VCA    =   1.00  1.00  1.00  1.00
   NELECT =    1536.0000    total number of electrons
   NUPDOWN=      -1.0000    fix difference up-down

 DOS related values:
   EMIN   =  10.00;   EMAX   =-10.00  energy-range for DOS
   EFERMI =   0.00
   ISMEAR =     0;   SIGMA  =   0.01  broadening in eV -4-tet -1-fermi 0-gaus

 Electronic relaxation 2 (details)
   IALGO  =     68    algorithm
   LDIAG  =      T    sub-space diagonalisation (order eigenvalues)
   LSUBROT=      F    optimize rotation matrix (better conditioning)
   TURBO    =      0    0=normal 1=particle mesh
   IRESTART =      0    0=no restart 2=restart with 2 vectors
   NREBOOT  =      0    no. of reboots
   NMIN     =      0    reboot dimension
   EREF     =   0.00    reference energy to select bands
   IMIX   =      4    mixing-type and parameters
     AMIX     =   0.40;   BMIX     =  1.00
     AMIX_MAG =   1.60;   BMIX_MAG =  1.00
     AMIN     =   0.10
     WC   =   100.;   INIMIX=   1;  MIXPRE=   1;  MAXMIX=  40

 Intra band minimization:
   WEIMIN = 0.0010     energy-eigenvalue tresh-hold
   EBREAK =  0.25E-07  absolut break condition
   DEPER  =   0.30     relativ break condition  

   TIME   =   0.40     timestep for ELM

  volume/ion in A,a.u.               =      20.51       138.39
  Fermi-wavevector in a.u.,A,eV,Ry     =   0.924428  1.746916 11.627092  0.854567
  Thomas-Fermi vector in A             =   2.050173
 
 Write flags
   LWAVE        =      F    write WAVECAR
   LDOWNSAMPLE  =      F    k-point downsampling of WAVECAR
   LCHARG       =      F    write CHGCAR
   LVTOT        =      F    write LOCPOT, total local potential
   LVHAR        =      F    write LOCPOT, Hartree potential only
   LELF         =      F    write electronic localiz. function (ELF)
   LORBIT       =     11    0 simple, 1 ext, 2 COOP (PROOUT), +10 PAW based schemes


 Dipole corrections
   LMONO  =      F    monopole corrections only (constant potential shift)
   LDIPOL =      F    correct potential (dipole corrections)
   IDIPOL =      0    1-x, 2-y, 3-z, 4-all directions 
   EPSILON=  1.0000000 bulk dielectric constant

 Exchange correlation treatment:
   GGA     =    PS    GGA type
   LEXCH   =    14    internal setting for exchange type
   VOSKOWN=      0    Vosko Wilk Nusair interpolation
   LHFCALC =     F    Hartree Fock is set to
   LHFONE  =     F    Hartree Fock one center treatment
   AEXX    =    0.0000 exact exchange contribution

 Linear response parameters
   LEPSILON=     F    determine dielectric tensor
   LRPA    =     F    only Hartree local field effects (RPA)
   LNABLA  =     F    use nabla operator in PAW spheres
   LVEL    =     F    velocity operator in full k-point grid
   LINTERFAST=   F  fast interpolation
   KINTER  =     0    interpolate to denser k-point grid
   CSHIFT  =0.1000    complex shift for real part using Kramers Kronig
   OMEGAMAX=  -1.0    maximum frequency
   DEG_THRESHOLD= 0.2000000E-02 threshold for treating states as degnerate
   RTIME   =   -0.100 relaxation time in fs
  (WPLASMAI=    0.000 imaginary part of plasma frequency in eV, 0.658/RTIME)
   DFIELD  = 0.0000000 0.0000000 0.0000000 field for delta impulse in time
 
 Orbital magnetization related:
   ORBITALMAG=     F  switch on orbital magnetization
   LCHIMAG   =     F  perturbation theory with respect to B field
   DQ        =  0.001000  dq finite difference perturbation B field
   LLRAUG    =     F  two centre corrections for induced B field



--------------------------------------------------------------------------------------------------------


 conjugate gradient relaxation of ions
 charge density and potential will be updated during run
 non-spin polarized calculation
 RMM-DIIS sequential band-by-band and
  variant of blocked Davidson during initial phase
 perform sub-space diagonalisation
    before iterative eigenvector-optimisation
 modified Broyden-mixing scheme, WC =      100.0
 initial mixing is a Kerker type mixing with AMIX =  0.4000 and BMIX =      1.0000
 Hartree-type preconditioning will be used
 using additional bands          240
 real space projection scheme for non local part
 use partial core corrections
 calculate Harris-corrections to forces 
   (improved forces if not selfconsistent)
 use gradient corrections 
 use of overlap-Matrix (Vanderbilt PP)
 Gauss-broadening in eV      SIGMA  =   0.01


--------------------------------------------------------------------------------------------------------


  energy-cutoff  :      280.00
  volume of cell :     8530.93
      direct lattice vectors                 reciprocal lattice vectors
    20.433000000  0.000000000  0.000000000     0.048940439  0.000000000  0.000000000
     0.000000000 20.433000000  0.000000000     0.000000000  0.048940439  0.000000000
     0.000000000  0.000000000 20.433000000     0.000000000  0.000000000  0.048940439

  length of vectors
    20.433000000 20.433000000 20.433000000     0.048940439  0.048940439  0.048940439


 
 k-points in units of 2pi/SCALE and weight: Title                                   
   0.00000000  0.00000000  0.00000000       1.000
 
 k-points in reciprocal lattice and weights: Title                                   
   0.00000000  0.00000000  0.00000000       1.000
 
 position of ions in fractional coordinates (direct lattice) 
   0.08856472  0.15803198  0.25675143
   0.32556397  0.25961689  0.90947633
   0.24304524  0.67431503  0.40723223
   0.16940625  0.50401835  0.83158988
   0.38186940  0.09157760  0.99965066
   0.58932311  0.16954220  0.76231741
   0.99632917  0.39926606  0.90493633
   0.66286997  0.48954701  0.82853412
   0.39769697  0.40129653  0.49944563
   0.01143905  0.14097200  0.85642878
   0.30277814  0.61779731  0.21794749
   0.23221775  0.36312443  0.51642478
   0.38168548  0.20752228  0.23820342
   0.89408389  0.10720400  0.01828416
   0.51621370  0.38018587  0.61009201
   0.67986058  0.80337847  0.43855264
   0.32186578  0.99349645  0.15986714
   0.12207296  0.19967316  0.78584006
   0.23246089  0.53406581  0.35965913
   0.11717128  0.52953336  0.99211977
   0.51054247  0.11127011  0.37853975
   0.60991553  0.09870128  0.01262850
   0.83878397  0.65779814  0.52404475
   0.47272337  0.04430685  0.62144250
   0.00562723  0.10227601  0.42087350
   0.45969001  0.29133883  0.87561633
   0.09756197  0.51406952  0.40888870
   0.10989366  0.76053152  0.14945158
   0.73460814  0.10049861  0.28529511
   0.83014063  0.07867799  0.74803063
   0.47776853  0.37153448  0.30126339
   0.81944346  0.73492422  0.92304071
   0.17048387  0.99589190  0.34330684
   0.08824731  0.10324802  0.99039720
   0.26926548  0.67298516  0.08645913
   0.11586076  0.01392272  0.86867961
   0.65065718  0.00997573  0.34027783
   0.86051303  0.26582629  0.97915729
   0.98194006  0.88897844  0.39030365
   0.98876960  0.83939640  0.85709121
   0.22026763  0.13558275  0.48480681
   0.26023006  0.36298554  0.97640596
   0.01480562  0.62994235  0.36861588
   0.89082276  0.73251082  0.15822296
   0.60144333  0.14920249  0.25990960
   0.89273331  0.00135773  0.59153388
   0.62234541  0.45346002  0.53922063
   0.75642105  0.59234807  0.82701920
   0.26703371  0.60852140  0.73363743
   0.15444917  0.59576200  0.26340747
   0.08586578  0.65570298  0.75918405
   0.09542957  0.76013629  0.63465721
   0.89835487  0.50828609  0.11116163
   0.73562680  0.16771159  0.41956922
   0.54337788  0.52136749  0.39266898
   0.83215348  0.91216070  0.75842993
   0.50328819  0.09977101  0.90027609
   0.39073913  0.10458817  0.51202078
   0.15997442  0.98838089  0.15062666
   0.25720293  0.89634796  0.76762932
   0.76338779  0.36768986  0.96301568
   0.63150331  0.28332270  0.54123082
   0.64713723  0.99203314  0.17281782
   0.14207012  0.65730299  0.48933608
   0.18554540  0.49670357  0.15691977
   0.32666624  0.24939234  0.41660476
   0.25543039  0.66944022  0.92236310
   0.33226633  0.89489979  0.26423738
   0.52350502  0.79184454  0.63227448
   0.65944270  0.48803122  0.66782012
   0.51042993  0.86916704  0.14423988
   0.66162688  0.66614946  0.51605931
   0.00836098  0.39511307  0.09980996
   0.89419671  0.39005164  0.49349687
   0.01308178  0.86494900  0.15520968
   0.00491141  0.88724778  0.60649403
   0.60075050  0.50207327  0.08105254
   0.62308369  0.72136716  0.78826098
   0.76912443  0.66760708  0.09989853
   0.09689626  0.85862656  0.73373136
   0.09496059  0.34544345  0.24567413
   0.03878462  0.38539557  0.53489319
   0.23056500  0.84061973  0.08771999
   0.33616628  0.00007458  0.83009967
   0.26292725  0.39490244  0.26373979
   0.61252014  0.24100379  0.37371959
   0.59677565  0.91003432  0.02621392
   0.54343813  0.64936223  0.28012242
   0.52427608  0.29505581  0.14097401
   0.33915896  0.49534702  0.66916435
   0.33638060  0.99161764  0.34753429
   0.14112711  0.82651342  0.50705982
   0.73303565  0.51676737  0.36461796
   0.74253908  0.34029285  0.58538088
   0.69431224  0.82101950  0.94221536
   0.67483266  0.07009700  0.71224899
   0.63672984  0.27741351  0.02270297
   0.34703668  0.99835536  0.66849304
   0.66621612  0.66870881  0.99281457
   0.16602371  0.50659591  0.66581742
   0.77144629  0.17276341  0.09544057
   0.58684144  0.91089669  0.50416189
   0.84276976  0.58552947  0.23925598
   0.75927552  0.60296418  0.66680678
   0.47952169  0.87456703  0.36114092
   0.39220160  0.13923752  0.74000815
   0.36041062  0.77976054  0.98475712
   0.47015815  0.62452538  0.72487819
   0.80214204  0.03508474  0.15819740
   0.85557130  0.23384922  0.52883074
   0.75348094  0.50315436  0.14150291
   0.90008366  0.64495721  0.74167459
   0.48774976  0.10369546  0.11191618
   0.23705396  0.83959210  0.59406523
   0.48943109  0.62730296  0.12619138
   0.24830538  0.67410951  0.58801896
   0.95027095  0.21431483  0.13072344
   0.99829247  0.14634306  0.64348789
   0.87976366  0.61775940  0.01664193
   0.85378269  0.47674128  0.79984418
   0.09302418  0.90179034  0.02319689
   0.32557424  0.22937111  0.59020346
   0.16007973  0.89476998  0.24050819
   0.03214078  0.36554533  0.72438508
   0.75700075  0.33269982  0.09970759
   0.72401061  0.01759733  0.86409925
   0.98930931  0.63242667  0.15171412
   0.97880510  0.59629915  0.60192692
   0.15837382  0.24462649  0.91554153
   0.16151663  0.24340460  0.58712576
   0.39546448  0.61188405  0.01479605
   0.41240775  0.60274155  0.50611486
   0.72747656  0.22706084  0.89630896
   0.60814604  0.10067094  0.48393109
   0.66109255  0.91314394  0.75851012
   0.85118729  0.51036900  0.65676742
   0.24528741  0.09884377  0.24675558
   0.26284505  0.09464916  0.66163274
   0.35151237  0.51447720  0.14781502
   0.11271253  0.96455659  0.54034560
   0.85034495  0.91231387  0.26047515
   0.87570665  0.27072203  0.77929063
   0.10724938  0.73286153  0.34663328
   0.75915928  0.67510019  0.40688977
   0.67882800  0.41173819  0.25335093
   0.22745438  0.38553742  0.73098462
   0.16076482  0.98368836  0.67518498
   0.13695555  0.73147095  0.98832799
   0.68066848  0.58682622  0.24596663
   0.31825041  0.24860935  0.08504688
   0.83237304  0.83286922  0.47665102
   0.82615692  0.83402087  0.03032962
   0.36890090  0.49454627  0.29397980
   0.22175301  0.13977765  0.96756356
   0.26023428  0.83836144  0.41200422
   0.22729518  0.09546631  0.82060687
   0.83991323  0.40866408  0.27102562
   0.73796244  0.16298605  0.57945077
   0.75510816  0.90644937  0.34414798
   0.88985206  0.73953669  0.63885437
   0.98688326  0.36675962  0.36475235
   0.32434856  0.47741851  0.84542220
   0.39450078  0.76743985  0.34706876
   0.50099611  0.60116392  0.89923237
   0.89487833  0.49139158  0.39219768
   0.99644012  0.60548110  0.91151852
   0.37307891  0.77968257  0.77910949
   0.66211052  0.77639660  0.09908280
   0.16411469  0.25416995  0.41680435
   0.40441336  0.39605135  0.99696654
   0.23501996  0.83533530  0.92043627
   0.39673235  0.74030673  0.15130685
   0.73529626  0.38814196  0.72613465
   0.89949678  0.99403211  0.90623892
   0.73618080  0.90075690  0.16282569
   0.73396797  0.96348732  0.63840082
   0.46241611  0.19731457  0.62813925
   0.38591245  0.35472981  0.76907404
   0.35182926  0.75715917  0.50245135
   0.61026762  0.85727136  0.24541782
   0.89120597  0.26579030  0.35867754
   0.96332462  0.04704591  0.12922430
   0.88021752  0.98943927  0.39153018
   0.89287119  0.13905543  0.24517936
   0.16396844  0.25013143  0.08037011
   0.46926756  0.44094949  0.88264829
   0.39705523  0.90932846  0.48272923
   0.50033195  0.86114448  0.86065710
   0.76452845  0.33628136  0.41804208
   0.59713769  0.33784866  0.72942781
   0.89480428  0.76827377  0.34424241
   0.72615728  0.77988975  0.60749039
   0.36867901  0.62886553  0.63429277
   0.12580743  0.62769660  0.88440220
   0.62842805  0.87556212  0.62778025
   0.86886002  0.36538107  0.87536543
   0.35782751  0.12334581  0.12899783
   0.36411082  0.37889309  0.37238931
   0.63578834  0.62188381  0.37747663
   0.13617946  0.37657447  0.12359509
   0.13200792  0.37514387  0.62915755
   0.62908215  0.61974682  0.87227933
   0.86261986  0.86863063  0.88726835
   0.13097141  0.12260211  0.37959303
   0.63239986  0.12783343  0.88231743
   0.63017097  0.37875936  0.12731450
   0.86564296  0.12629023  0.62342703
   0.36319613  0.87364662  0.87404905
   0.99636170  0.00466687  0.00128932
   0.98949347  0.98753185  0.49720416
   0.98869730  0.50031958  0.00194185
   0.99157707  0.50262173  0.49525313
   0.49893227  0.01674507  0.00752146
   0.49533917  0.01100114  0.49061988
   0.49165934  0.50853706  0.00194540
   0.49578111  0.49383497  0.51348344
   0.99265529  0.25258724  0.25874091
   0.00039879  0.23716621  0.74823711
   0.00417009  0.74207489  0.24833620
   0.99750979  0.75581550  0.74011978
   0.50631463  0.24752094  0.26271008
   0.48713129  0.25233377  0.74968785
   0.49405397  0.76727551  0.24927878
   0.49909598  0.75315226  0.75833194
   0.24638476  0.98337487  0.25197572
   0.25538479  0.00787195  0.74420775
   0.26198615  0.51231617  0.24640724
   0.25138345  0.49647299  0.74937952
   0.74254873  0.98650662  0.25234274
   0.74811450  0.99341986  0.75073802
   0.75853348  0.49976602  0.25415826
   0.75219669  0.50480195  0.74506141
   0.24543982  0.24993598  0.99476197
   0.24542029  0.24774862  0.50349757
   0.24875419  0.75376642  0.00214561
   0.23448421  0.75263688  0.50147009
   0.74942952  0.26032194  0.00755673
   0.74233088  0.25271425  0.50385483
   0.74778621  0.74914675  0.01425749
   0.75268410  0.74006155  0.50126380
   0.43480032  0.19098556  0.43652752
   0.43365767  0.19182727  0.94469666
   0.43763044  0.70035482  0.43901264
   0.44724835  0.70001489  0.94589650
   0.93692422  0.19667309  0.44592619
   0.94458010  0.19060140  0.94362093
   0.93202647  0.68907859  0.43636862
   0.93449085  0.69778539  0.95046433
   0.18539611  0.05961422  0.05310791
   0.19286967  0.04864020  0.56764212
   0.20383771  0.56974685  0.05892980
   0.19088829  0.56999362  0.56410847
   0.70180200  0.06238084  0.07735199
   0.68788319  0.05039062  0.55901107
   0.69801410  0.56882271  0.05957235
   0.69314608  0.55412918  0.56639214
   0.30239813  0.05261483  0.44842266
   0.29353264  0.05262112  0.93237828
   0.30807291  0.57264292  0.44720504
   0.31651901  0.56563133  0.93731147
   0.79785172  0.06018266  0.43718502
   0.80537524  0.05667433  0.95016229
   0.80974666  0.56051865  0.44922551
   0.80876631  0.56363112  0.93600709
   0.05737741  0.19339918  0.06328008
   0.06125342  0.18573205  0.54970790
   0.05409828  0.69009352  0.06400255
   0.04752191  0.68796363  0.55414162
   0.55172831  0.19723487  0.06690812
   0.55242955  0.18794018  0.55282074
   0.56727615  0.69604062  0.06233377
   0.55229084  0.70206673  0.55740518
   0.12826496  0.13029124  0.88122159
   0.13490059  0.62201224  0.37636560
   0.63058946  0.12509856  0.37046429
   0.44521111  0.44731909  0.20440133
   0.44131790  0.43008030  0.69230588
   0.43215104  0.94485149  0.19431259
   0.45217222  0.94721916  0.69256121
   0.94634327  0.43647176  0.19575967
   0.94020226  0.44309759  0.70592494
   0.94444827  0.95028345  0.19874184
   0.93255622  0.93962277  0.69028303
   0.18902298  0.31132416  0.31031049
   0.19129865  0.30034796  0.80772095
   0.19285985  0.80559425  0.31152909
   0.17874631  0.81256037  0.80942891
   0.69433384  0.30850983  0.31669817
   0.68597446  0.30215208  0.80199513
   0.69343563  0.80441185  0.31453814
   0.69662341  0.80884046  0.81439991
   0.30792069  0.30045642  0.19847011
   0.30798337  0.30408367  0.69280250
   0.30377003  0.80807834  0.18889286
   0.29615226  0.80905906  0.69479873
   0.81263531  0.30755466  0.20245853
   0.80321722  0.29781585  0.68674718
   0.80881949  0.81092447  0.19546420
   0.80926116  0.81251235  0.69277124
   0.06340792  0.44162985  0.31237060
   0.06190221  0.44602552  0.81148556
   0.06399359  0.93832703  0.31442382
   0.04838144  0.93645321  0.80750004
   0.57123043  0.44544706  0.30663671
   0.55982072  0.42660697  0.80573367
   0.55182339  0.94735945  0.30869234
   0.56225672  0.95264104  0.81777108
   0.12553848  0.87411558  0.13088836
   0.12233948  0.87394996  0.61925864
   0.63441072  0.37707151  0.62664835
   0.62462423  0.88215507  0.13411921
   0.18543521  0.19068244  0.19345783
   0.19489206  0.18535378  0.69309383
   0.19683154  0.68707252  0.19346006
   0.18118486  0.69145922  0.69366529
   0.69859542  0.18869488  0.19926909
   0.67883754  0.18806087  0.68461738
   0.69235558  0.69555420  0.19265182
   0.69397811  0.69817958  0.69635103
   0.43049159  0.06254311  0.30636688
   0.43794552  0.05883620  0.81337243
   0.46297455  0.56696703  0.31456532
   0.44068117  0.54066858  0.81044709
   0.95019191  0.05968643  0.31925591
   0.93593320  0.05568217  0.80681296
   0.94632686  0.55752233  0.30441427
   0.94198107  0.56179342  0.81531897
   0.06365683  0.05720658  0.19900309
   0.05611197  0.05130390  0.69279680
   0.06689523  0.55048307  0.19103792
   0.05646719  0.56104735  0.69426744
   0.55241207  0.06103077  0.19634434
   0.55594233  0.07109182  0.70184604
   0.56816359  0.56356202  0.19059904
   0.55655694  0.55018960  0.69552312
   0.29466049  0.18552274  0.31410943
   0.30904722  0.18659182  0.81123937
   0.31097575  0.69329321  0.30863356
   0.29564132  0.69541543  0.80980401
   0.80794206  0.19073473  0.31862865
   0.79700586  0.18501875  0.80437678
   0.81344947  0.68948260  0.30377929
   0.81488147  0.69440056  0.80974088
   0.37497395  0.11865401  0.62665917
   0.37387436  0.62925559  0.12603707
   0.87606387  0.12473977  0.13134173
   0.87382095  0.61948330  0.13061289
   0.87062443  0.62459993  0.63279370
   0.19509567  0.45474360  0.44455079
   0.19571209  0.45597953  0.94102770
   0.19006745  0.93399112  0.45200962
   0.17652523  0.93820170  0.94070988
   0.69829481  0.44073729  0.44937426
   0.68505628  0.45235809  0.94432317
   0.68332815  0.93983420  0.43703932
   0.68790414  0.94762231  0.95724830
   0.42849090  0.30151628  0.06905906
   0.43390589  0.29853078  0.56096096
   0.44596230  0.81031871  0.06175257
   0.44101541  0.81878276  0.55151360
   0.94147801  0.30681171  0.05512240
   0.94924274  0.30846864  0.56333863
   0.93747825  0.80761385  0.07476859
   0.93351654  0.80690285  0.54951878
   0.06022619  0.31125551  0.44429092
   0.06245127  0.30897906  0.94393020
   0.05170858  0.80049621  0.43426184
   0.05241643  0.80925270  0.95498385
   0.55066625  0.31209881  0.44739641
   0.54427349  0.31226801  0.95349532
   0.55646432  0.81558236  0.43451068
   0.56580422  0.81563027  0.95005000
   0.30994706  0.44547970  0.05511110
   0.30441704  0.44984090  0.56132226
   0.29787497  0.93883613  0.05236330
   0.31174083  0.93314659  0.56476887
   0.80653843  0.44635957  0.05230660
   0.81315055  0.44111559  0.56598763
   0.81109446  0.94488394  0.07360832
   0.80337583  0.93537619  0.54750820
   0.37313305  0.37104235  0.88504544
   0.36518428  0.87641448  0.37643075
   0.87287924  0.37769352  0.38145597
   0.86735873  0.87734357  0.37124038
   0.23825987  0.99516891  0.99697168
   0.25205912  0.99075605  0.50907783
   0.25858887  0.51047226  0.99842284
   0.25015624  0.51361878  0.50496775
   0.75191651  0.99997456  0.01477886
   0.74547723  0.99815630  0.49389536
   0.74957180  0.50871358  0.99432199
   0.75518055  0.49907398  0.50819361
   0.24261749  0.24753999  0.25360865
   0.25255338  0.24443827  0.75137980
   0.25107422  0.75013955  0.25132960
   0.23630349  0.75323734  0.75283533
   0.75208066  0.25103108  0.25730736
   0.74123176  0.24196164  0.74290758
   0.75155121  0.75068512  0.25262811
   0.75536657  0.75378116  0.75365472
   0.00716617  0.00047602  0.26006364
   0.99308299  0.99699305  0.74733839
   0.00593816  0.49669435  0.25030775
   0.00068165  0.50449506  0.75654919
   0.48955051  0.00369217  0.25208042
   0.50258923  0.00407669  0.75679559
   0.51138015  0.50489064  0.25177713
   0.50243323  0.48733862  0.74898769
   0.00467512  0.25069709  0.99953966
   0.00253589  0.24991145  0.50055888
   0.99293710  0.75195264  0.01285965
   0.99081423  0.74610657  0.49370175
   0.48865296  0.24990002  0.00706579
   0.49359336  0.24713070  0.49583414
   0.50834398  0.75411205  0.00612652
   0.49938265  0.75832860  0.49504104
 
 position of ions in cartesian coordinates  (Angst):
   1.80964293  3.22906748  5.24620204
   6.65224867  5.30475196 18.58332976
   4.96614349 13.77827892  8.32097610
   3.46147797 10.29860686 16.99187597
   7.80273741  1.87120510 20.42586191
  12.04163917  3.46425585 15.57643158
  20.35799392  8.15820347 18.49056400
  13.54442201 10.00291397 16.92943759
   8.12614228  8.19969202 10.20517247
   0.23373409  2.88048098 17.49940922
   6.18666574 12.62345247  4.45332104
   4.74490520  7.41972148 10.55210761
   7.79897951  4.24030270  4.86721042
  18.26881620  2.19049935  0.37360027
  10.54779460  7.76833784 12.46601012
  13.89159124 16.41543233  8.96094614
   6.57668342 20.30011297  3.26656524
   2.49431684  4.07992173 16.05706999
   4.74987338 10.91256666  7.34891504
   2.39416074 10.81995518 20.27198332
  10.43191421  2.27358212  7.73470279
  12.46240398  2.01676331  0.25803812
  17.13887291 13.44078940 10.70780634
   9.65915653  0.90532186 12.69793463
   0.11498127  2.08980581  8.59970831
[...]


--------------------------------------------------------------------------------------------------------



  FREE ENERGIE OF THE ION-ELECTRON SYSTEM (eV)
  ---------------------------------------------------
  free  energy   TOTEN  =     -1757.21077598 eV

  energy  without entropy=    -1757.21077598  energy(sigma->0) =    -1757.21077598
 


--------------------------------------------------------------------------------------------------------


    POTLOK:  cpu time    0.2760: real time    0.2780


--------------------------------------------------------------------------------------------------------




--------------------------------------------------------------------------------------------------------


  
 reached required accuracy - stopping structural energy minimisation
     LOOP+:  cpu time   28.0778: real time   32.5824
    4ORBIT:  cpu time    0.0000: real time    0.0000
 


 total charge     
 
# of ion       s       p       d       tot
------------------------------------------
    1        0.083   0.145   0.000   0.228
    2        0.083   0.142   0.000   0.224
    3        0.083   0.143   0.000   0.226
    4        0.082   0.141   0.000   0.224
    5        0.078   0.132   0.000   0.210
    6        0.084   0.150   0.000   0.235
    7        0.077   0.130   0.000   0.206
    8        0.077   0.128   0.000   0.205
    9        0.077   0.130   0.000   0.206
   10        0.079   0.134   0.000   0.214
   11        0.097   0.175   0.000   0.272
   12        0.080   0.136   0.000   0.216
   13        0.077   0.135   0.000   0.212
   14        0.085   0.146   0.000   0.231
   15        0.078   0.130   0.000   0.208
   16        0.080   0.135   0.000   0.215
   17        0.079   0.135   0.000   0.214
   18        0.090   0.162   0.000   0.252
   19        0.084   0.146   0.000   0.230
   20        0.082   0.145   0.000   0.228
   21        0.081   0.136   0.000   0.217
   22        0.078   0.131   0.000   0.209
   23        0.081   0.138   0.000   0.219
   24        0.084   0.151   0.000   0.235
   25        0.077   0.132   0.000   0.208
   26        0.091   0.165   0.000   0.257
   27        0.084   0.147   0.000   0.231
   28        0.085   0.144   0.000   0.228
   29        0.080   0.137   0.000   0.217
   30        0.080   0.136   0.000   0.215
   31        0.078   0.136   0.000   0.214
   32        0.082   0.139   0.000   0.222
   33        0.078   0.132   0.000   0.209
   34        0.087   0.154   0.000   0.241
   35        0.083   0.143   0.000   0.225
   36        0.083   0.137   0.000   0.220
   37        0.082   0.142   0.000   0.223
   38        0.092   0.165   0.000   0.257
   39        0.085   0.145   0.000   0.230
   40        0.074   0.123   0.000   0.197
   41        0.084   0.146   0.000   0.230
   42        0.083   0.143   0.000   0.226
   43        0.082   0.135   0.000   0.218
   44        0.086   0.149   0.000   0.235
   45        0.091   0.162   0.000   0.253
   46        0.083   0.143   0.000   0.226
   47        0.090   0.160   0.000   0.249
   48        0.085   0.147   0.000   0.232
   49        0.087   0.151   0.000   0.238
   50        0.083   0.143   0.000   0.226
   51        0.083   0.146   0.000   0.229
   52        0.087   0.150   0.000   0.238
   53        0.087   0.151   0.000   0.238
   54        0.080   0.138   0.000   0.219
   55        0.082   0.145   0.000   0.227
   56        0.081   0.139   0.000   0.220
   57        0.085   0.149   0.000   0.234
   58        0.086   0.148   0.000   0.234
   59        0.075   0.126   0.000   0.201
   60        0.090   0.156   0.000   0.246
   61        0.091   0.161   0.000   0.252
   62        0.079   0.135   0.000   0.214
   63        0.087   0.151   0.000   0.238
   64        0.085   0.148   0.000   0.234
   65        0.077   0.130   0.000   0.207
   66        0.075   0.126   0.000   0.202
   67        0.086   0.147   0.000   0.233
   68        0.089   0.154   0.000   0.243
   69        0.081   0.144   0.000   0.225
   70        0.085   0.148   0.000   0.233
   71        0.089   0.153   0.000   0.242
   72        0.078   0.128   0.000   0.206
   73        0.080   0.135   0.000   0.214
   74        0.092   0.160   0.000   0.252
   75        0.087   0.147   0.000   0.234
   76        0.081   0.137   0.000   0.219
   77        0.074   0.125   0.000   0.199
   78        0.089   0.163   0.000   0.253
   79        0.086   0.149   0.000   0.235
   80        0.091   0.159   0.000   0.249
   81        0.082   0.142   0.000   0.223
   82        0.085   0.152   0.000   0.236
   83        0.080   0.138   0.000   0.218
   84        0.088   0.155   0.000   0.242
   85        0.078   0.132   0.000   0.210
   86        0.087   0.146   0.000   0.233
   87        0.084   0.145   0.000   0.228
   88        0.076   0.132   0.000   0.209
   89        0.079   0.135   0.000   0.214
   90        0.080   0.137   0.000   0.216
   91        0.078   0.131   0.000   0.209
   92        0.090   0.157   0.000   0.247
   93        0.088   0.157   0.000   0.246
   94        0.085   0.149   0.000   0.233
   95        0.078   0.132   0.000   0.210
   96        0.092   0.154   0.000   0.246
   97        0.082   0.142   0.000   0.224
   98        0.086   0.147   0.000   0.233
   99        0.083   0.146   0.000   0.229
  100        0.078   0.131   0.000   0.209
  101        0.071   0.119   0.000   0.190
  102        0.078   0.134   0.000   0.211
  103        0.083   0.144   0.000   0.227
  104        0.086   0.149   0.000   0.236
  105        0.094   0.161   0.000   0.254
  106        0.091   0.158   0.000   0.248
  107        0.083   0.145   0.000   0.228
  108        0.078   0.136   0.000   0.214
  109        0.081   0.140   0.000   0.221
  110        0.081   0.138   0.000   0.219
  111        0.094   0.165   0.000   0.259
  112        0.092   0.162   0.000   0.254
  113        0.089   0.158   0.000   0.247
  114        0.082   0.142   0.000   0.224
  115        0.087   0.143   0.000   0.229
  116        0.084   0.146   0.000   0.230
  117        0.083   0.144   0.000   0.228
  118        0.078   0.131   0.000   0.208
  119        0.094   0.161   0.000   0.256
  120        0.078   0.133   0.000   0.211
  121        0.084   0.144   0.000   0.228
  122        0.074   0.123   0.000   0.197
  123        0.090   0.159   0.000   0.249
  124        0.075   0.128   0.000   0.203
  125        0.083   0.141   0.000   0.225
  126        0.076   0.130   0.000   0.206
  127        0.084   0.143   0.000   0.226
  128        0.079   0.134   0.000   0.213
  129        0.089   0.159   0.000   0.248
  130        0.080   0.136   0.000   0.216
  131        0.091   0.160   0.000   0.251
  132        0.072   0.121   0.000   0.193
  133        0.078   0.132   0.000   0.210
  134        0.082   0.139   0.000   0.221
  135        0.081   0.139   0.000   0.221
  136        0.085   0.149   0.000   0.234
  137        0.084   0.142   0.000   0.226
  138        0.093   0.166   0.000   0.259
  139        0.077   0.131   0.000   0.208
  140        0.088   0.159   0.000   0.247
  141        0.087   0.151   0.000   0.237
  142        0.082   0.145   0.000   0.228
  143        0.087   0.150   0.000   0.237
  144        0.090   0.155   0.000   0.245
  145        0.080   0.136   0.000   0.215
  146        0.088   0.158   0.000   0.246
  147        0.075   0.126   0.000   0.201
  148        0.089   0.156   0.000   0.245
  149        0.082   0.138   0.000   0.220
  150        0.082   0.139   0.000   0.221
  151        0.076   0.127   0.000   0.203
  152        0.082   0.138   0.000   0.220
  153        0.082   0.143   0.000   0.225
  154        0.092   0.167   0.000   0.259
  155        0.082   0.142   0.000   0.224
  156        0.083   0.142   0.000   0.225
  157        0.076   0.128   0.000   0.204
  158        0.082   0.139   0.000   0.221
  159        0.090   0.161   0.000   0.252
  160        0.087   0.148   0.000   0.235
  161        0.090   0.152   0.000   0.242
  162        0.071   0.118   0.000   0.189
  163        0.091   0.161   0.000   0.252
  164        0.078   0.132   0.000   0.209
  165        0.086   0.148   0.000   0.234
  166        0.084   0.145   0.000   0.229
  167        0.087   0.159   0.000   0.246
  168        0.080   0.136   0.000   0.216
  169        0.080   0.138   0.000   0.218
  170        0.084   0.146   0.000   0.229
  171        0.083   0.143   0.000   0.226
  172        0.086   0.149   0.000   0.235
  173        0.082   0.140   0.000   0.222
  174        0.081   0.139   0.000   0.219
  175        0.092   0.166   0.000   0.258
  176        0.087   0.154   0.000   0.241
  177        0.089   0.160   0.000   0.249
  178        0.087   0.149   0.000   0.235
  179        0.085   0.144   0.000   0.229
  180        0.085   0.147   0.000   0.233
  181        0.090   0.159   0.000   0.249
  182        0.087   0.153   0.000   0.240
  183        0.090   0.155   0.000   0.245
  184        0.082   0.137   0.000   0.219
  185        0.079   0.133   0.000   0.212
  186        0.085   0.148   0.000   0.233
  187        0.087   0.152   0.000   0.238
  188        0.076   0.124   0.000   0.200
  189        0.078   0.132   0.000   0.210
  190        0.087   0.153   0.000   0.240
  191        0.082   0.139   0.000   0.221
  192        0.081   0.141   0.000   0.222
  193        1.492   2.845   0.005   4.342
  194        1.492   2.851   0.006   4.349
  195        1.491   2.856   0.005   4.353
  196        1.491   2.855   0.006   4.352
  197        1.493   2.853   0.007   4.353
  198        1.492   2.847   0.005   4.344
  199        1.493   2.846   0.007   4.346
  200        1.493   2.853   0.006   4.352
  201        1.491   2.856   0.005   4.352
  202        1.491   2.861   0.006   4.359
  203        1.493   2.846   0.006   4.345
  204        1.492   2.855   0.006   4.354
  205        1.492   2.854   0.006   4.352
  206        1.492   2.849   0.006   4.346
  207        1.491   2.853   0.006   4.350
  208        1.492   2.848   0.006   4.346
  209        1.493   2.842   0.005   4.340
  210        1.492   2.848   0.006   4.346
  211        1.492   2.845   0.006   4.343
  212        1.493   2.839   0.006   4.338
  213        1.494   2.838   0.006   4.339
  214        1.493   2.845   0.006   4.344
  215        1.492   2.843   0.006   4.341
  216        1.491   2.853   0.005   4.349
  217        1.492   2.840   0.005   4.338
  218        1.490   2.860   0.005   4.355
  219        1.494   2.826   0.005   4.325
  220        1.494   2.834   0.006   4.334
  221        1.492   2.859   0.006   4.356
  222        1.492   2.858   0.006   4.357
  223        1.493   2.842   0.006   4.340
  224        1.490   2.868   0.005   4.362
  225        1.301   2.445   0.000   3.746
  226        1.301   2.463   0.000   3.764
  227        1.300   2.457   0.000   3.757
  228        1.300   2.475   0.000   3.775
  229        1.302   2.432   0.000   3.734
  230        1.300   2.480   0.000   3.780
  231        1.301   2.472   0.000   3.773
  232        1.300   2.449   0.000   3.749
  233        1.299   2.482   0.000   3.781
  234        1.300   2.470   0.000   3.770
  235        1.300   2.476   0.000   3.776
  236        1.301   2.447   0.000   3.748
  237        1.300   2.471   0.000   3.771
  238        1.301   2.455   0.000   3.756
  239        1.301   2.469   0.000   3.770
  240        1.301   2.468   0.000   3.769
  241        1.331   2.418   0.000   3.749
  242        1.330   2.419   0.000   3.749
  243        1.332   2.419   0.000   3.751
  244        1.330   2.418   0.000   3.748
  245        1.333   2.428   0.000   3.760
  246        1.330   2.426   0.000   3.756
  247        1.335   2.411   0.000   3.746
  248        1.327   2.436   0.000   3.763
  249        1.334   2.417   0.000   3.750
  250        1.332   2.424   0.000   3.756
  251        1.333   2.422   0.000   3.756
  252        1.329   2.421   0.000   3.751
  253        1.330   2.418   0.000   3.749
  254        1.331   2.417   0.000   3.748
  255        1.329   2.429   0.000   3.759
  256        1.329   2.419   0.000   3.748
  257        1.333   2.426   0.000   3.758
  258        1.326   2.434   0.000   3.761
  259        1.332   2.414   0.000   3.746
  260        1.332   2.422   0.000   3.754
  261        1.335   2.414   0.000   3.749
  262        1.331   2.418   0.000   3.749
  263        1.330   2.423   0.000   3.753
  264        1.334   2.410   0.000   3.744
  265        1.334   2.418   0.000   3.752
  266        1.333   2.417   0.000   3.749
  267        1.333   2.420   0.000   3.752
  268        1.329   2.432   0.000   3.760
  269        1.331   2.423   0.000   3.754
  270        1.335   2.418   0.000   3.752
  271        1.332   2.417   0.000   3.749
  272        1.335   2.413   0.000   3.748
  273        1.299   2.464   0.000   3.764
  274        1.300   2.463   0.000   3.762
  275        1.300   2.460   0.000   3.760
  276        1.338   2.402   0.000   3.741
  277        1.330   2.425   0.000   3.755
  278        1.329   2.418   0.000   3.748
  279        1.338   2.407   0.000   3.745
  280        1.331   2.415   0.000   3.746
  281        1.336   2.414   0.000   3.750
  282        1.331   2.433   0.000   3.764
  283        1.330   2.419   0.000   3.749
  284        1.332   2.427   0.000   3.759
  285        1.335   2.416   0.000   3.751
  286        1.331   2.434   0.000   3.764
  287        1.336   2.415   0.000   3.750
  288        1.329   2.424   0.000   3.753
  289        1.336   2.411   0.000   3.748
  290        1.327   2.429   0.000   3.756
  291        1.329   2.425   0.000   3.755
  292        1.335   2.413   0.000   3.748
  293        1.334   2.420   0.000   3.755
  294        1.332   2.426   0.000   3.758
  295        1.337   2.426   0.000   3.762
  296        1.334   2.413   0.000   3.747
  297        1.336   2.416   0.000   3.752
  298        1.331   2.424   0.000   3.755
  299        1.333   2.424   0.000   3.757
  300        1.330   2.424   0.000   3.754
  301        1.332   2.418   0.000   3.750
  302        1.331   2.417   0.000   3.748
  303        1.328   2.430   0.000   3.758
  304        1.334   2.425   0.000   3.759
  305        1.333   2.420   0.000   3.754
  306        1.328   2.434   0.000   3.762
  307        1.332   2.419   0.000   3.751
  308        1.300   2.476   0.000   3.776
  309        1.300   2.459   0.000   3.759
  310        1.301   2.453   0.000   3.753
  311        1.300   2.484   0.000   3.783
  312        1.334   2.417   0.000   3.751
  313        1.332   2.429   0.000   3.761
  314        1.331   2.423   0.000   3.754
  315        1.330   2.426   0.000   3.756
  316        1.333   2.411   0.000   3.744
  317        1.331   2.424   0.000   3.755
  318        1.332   2.416   0.000   3.748
  319        1.335   2.424   0.000   3.759
  320        1.335   2.413   0.000   3.748
  321        1.327   2.443   0.000   3.769
  322        1.339   2.418   0.000   3.756
  323        1.332   2.414   0.000   3.746
  324        1.328   2.422   0.000   3.750
  325        1.328   2.421   0.000   3.750
  326        1.329   2.429   0.000   3.758
  327        1.331   2.430   0.000   3.761
  328        1.332   2.420   0.000   3.752
  329        1.333   2.409   0.000   3.743
  330        1.330   2.419   0.000   3.749
  331        1.330   2.422   0.000   3.752
  332        1.326   2.444   0.000   3.770
  333        1.329   2.430   0.000   3.759
  334        1.330   2.420   0.000   3.749
  335        1.338   2.414   0.000   3.752
  336        1.335   2.423   0.000   3.757
  337        1.333   2.424   0.000   3.757
  338        1.334   2.431   0.000   3.765
  339        1.334   2.428   0.000   3.762
  340        1.329   2.433   0.000   3.762
  341        1.335   2.420   0.000   3.754
  342        1.330   2.431   0.000   3.760
  343        1.328   2.435   0.000   3.763
  344        1.300   2.462   0.000   3.762
  345        1.300   2.477   0.000   3.777
  346        1.300   2.475   0.000   3.775
  347        1.300   2.476   0.000   3.776
  348        1.300   2.477   0.000   3.777
  349        1.334   2.422   0.000   3.756
  350        1.333   2.427   0.000   3.761
  351        1.330   2.421   0.000   3.751
  352        1.330   2.428   0.000   3.757
  353        1.336   2.421   0.000   3.756
  354        1.337   2.413   0.000   3.750
  355        1.327   2.424   0.000   3.751
  356        1.330   2.422   0.000   3.752
  357        1.333   2.424   0.000   3.757
  358        1.330   2.415   0.000   3.746
  359        1.332   2.426   0.000   3.758
  360        1.335   2.424   0.000   3.759
  361        1.333   2.431   0.000   3.764
  362        1.336   2.412   0.000   3.749
  363        1.331   2.425   0.000   3.756
  364        1.331   2.424   0.000   3.755
  365        1.331   2.425   0.000   3.756
  366        1.332   2.425   0.000   3.757
  367        1.330   2.428   0.000   3.758
  368        1.331   2.429   0.000   3.759
  369        1.340   2.404   0.000   3.743
  370        1.340   2.411   0.000   3.752
  371        1.330   2.423   0.000   3.752
  372        1.327   2.422   0.000   3.748
  373        1.333   2.422   0.000   3.755
  374        1.329   2.427   0.000   3.756
  375        1.336   2.410   0.000   3.745
  376        1.334   2.419   0.000   3.753
  377        1.330   2.417   0.000   3.747
  378        1.331   2.427   0.000   3.758
  379        1.333   2.422   0.000   3.755
  380        1.332   2.425   0.000   3.756
  381        1.301   2.450   0.000   3.752
  382        1.301   2.471   0.000   3.771
  383        1.301   2.475   0.000   3.776
  384        1.300   2.476   0.000   3.776
  385        0.970   1.377   0.000   2.347
  386        0.971   1.379   0.000   2.350
  387        0.970   1.379   0.000   2.349
  388        0.970   1.375   0.000   2.345
  389        0.971   1.373   0.000   2.344
  390        0.971   1.374   0.000   2.344
  391        0.970   1.373   0.000   2.343
  392        0.970   1.377   0.000   2.347
  393        0.970   1.380   0.000   2.351
  394        0.969   1.385   0.000   2.354
  395        0.970   1.383   0.000   2.353
  396        0.971   1.383   0.000   2.354
  397        0.970   1.377   0.000   2.347
  398        0.970   1.380   0.000   2.351
  399        0.970   1.376   0.000   2.346
  400        0.970   1.377   0.000   2.347
  401        0.970   1.377   0.000   2.347
  402        0.969   1.375   0.000   2.344
  403        0.969   1.376   0.000   2.346
  404        0.970   1.381   0.000   2.351
  405        0.969   1.376   0.000   2.345
  406        0.969   1.378   0.000   2.347
  407        0.971   1.381   0.000   2.352
  408        0.969   1.381   0.000   2.350
  409        0.969   1.381   0.000   2.350
  410        0.969   1.380   0.000   2.349
  411        0.970   1.377   0.000   2.347
  412        0.970   1.380   0.000   2.350
  413        0.971   1.382   0.000   2.352
  414        0.970   1.380   0.000   2.350
  415        0.969   1.374   0.000   2.344
  416        0.970   1.378   0.000   2.348
--------------------------------------------------
tot        306.892 551.786   0.183 858.861
 

 total amount of memory used by VASP MPI-rank0    48687. kBytes
=======================================================================

   base      :      30000. kBytes
   nonlr-proj:       5175. kBytes
   fftplans  :       5479. kBytes
   grid      :       5170. kBytes
   one-center:        210. kBytes
   wavefun   :       2653. kBytes
 
  
  
 General timing and accounting informations for this job:
 ========================================================
  
                  Total CPU time used (sec):       90.870
                            User time (sec):       54.547
                          System time (sec):       36.322
                         Elapsed time (sec):      135.417
  
                   Maximum memory used (kb):      214136.
                   Average memory used (kb):           0.
  
                          Minor page faults:        56246
                          Major page faults:            0
                 Voluntary context switches:         1077
