 vasp.5.4.4.18Apr17-6-g9f103f2a35 (build Apr 27 2017 19:33:31) gamma-only       
  
 executed on       CrayXC-Intel16 date 2019.09.09  13:40:35
 running on  288 total cores
 distrk:  each k-point on  288 cores,    1 groups
 distr:  one band on NCORES_PER_BAND=   8 cores,   36 groups


--------------------------------------------------------------------------------------------------------


 INCAR:
 POTCAR:    PAW_PBE Li 17Jan2003                  
 POTCAR:    PAW_PBE I 08Apr2002                   
 POTCAR:    PAW_PBE S 06Sep2000                   
 POTCAR:    PAW_PBE P 06Sep2000                   

 ----------------------------------------------------------------------------- 
|                                                                             |
|           W    W    AA    RRRRR   N    N  II  N    N   GGGG   !!!           |
|           W    W   A  A   R    R  NN   N  II  NN   N  G    G  !!!           |
|           W    W  A    A  R    R  N N  N  II  N N  N  G       !!!           |
|           W WW W  AAAAAA  RRRRR   N  N N  II  N  N N  G  GGG   !            |
|           WW  WW  A    A  R   R   N   NN  II  N   NN  G    G                |
|           W    W  A    A  R    R  N    N  II  N    N   GGGG   !!!           |
|                                                                             |
|      For optimal performance we recommend to set                            |
|        NCORE= 4 - approx SQRT( number of cores)                             |
|      NCORE specifies how many cores store one orbital (NPAR=cpu/NCORE).     |
|      This setting can  greatly improve the performance of VASP for DFT.     |
|      The default,   NCORE=1            might be grossly inefficient         |
|      on modern multi-core architectures or massively parallel machines.     |
|      Do your own testing !!!!                                               |
|      Unfortunately you need to use the default for GW and RPA calculations. |
|      (for HF NCORE is supported but not extensively tested yet)             |
|                                                                             |
 ----------------------------------------------------------------------------- 

 POTCAR:    PAW_PBE Li 17Jan2003                  
   VRHFIN =Li: s1p0                                                             
   LEXCH  = PE                                                                  
   EATOM  =     5.3001 eV,    0.3895 Ry                                         
                                                                                
   TITEL  = PAW_PBE Li 17Jan2003                                                
   LULTRA =        F    use ultrasoft PP ?                                      
   IUNSCR =        1    unscreen: 0-lin 1-nonlin 2-no                           
   RPACOR =    1.500    partial core radius                                     
   POMASS =    7.010; ZVAL   =    1.000    mass and valenz                      
   RCORE  =    2.050    outmost cutoff radius                                   
   RWIGS  =    2.600; RWIGS  =    1.376    wigner-seitz radius (au A)           
   ENMAX  =  140.000; ENMIN  =  100.000 eV                                      
   ICORE  =        2    local potential                                         
   LCOR   =        T    correct aug charges                                     
   LPAW   =        T    paw PP                                                  
   EAUG   =  331.638                                                            
   DEXC   =    0.000                                                            
   RMAX   =    2.098    core radius for proj-oper                               
   RAUG   =    1.300    factor for augmentation sphere                          
   RDEP   =    2.094    radius for radial grids                                 
   RDEPT  =    1.810    core radius for aug-charge                              
                                                                                
   Atomic configuration                                                         
    4 entries                                                                   
     n  l   j            E        occ.                                          
     1  0  0.50       -51.8549   2.0000                                         
     2  0  0.50        -2.8742   1.0000                                         
     2  1  0.50        -1.3606   0.0000                                         
     3  2  1.50        -1.3606   0.0000                                         
   Description                                                                  
     l       E           TYP  RCUT    TYP  RCUT                                 
     0     -2.8742052     23  2.050                                             
     0     27.2116520     23  2.050                                             
     1     -1.3605826     23  2.050                                             
     2     -1.3605826     23  2.050                                             
  local pseudopotential read in
  partial core-charges read in
  partial kinetic energy density read in
  atomic valenz-charges read in
  non local Contribution for L=           0  read in
    real space projection operators read in
  non local Contribution for L=           0  read in
    real space projection operators read in
  non local Contribution for L=           1  read in
    real space projection operators read in
    PAW grid and wavefunctions read in
 
   number of l-projection  operators is LMAX  =           3
   number of lm-projection operators is LMMAX =           5
 
 POTCAR:    PAW_PBE I 08Apr2002                   
   VRHFIN =I : s2p5                                                             
   LEXCH  = PE                                                                  
   EATOM  =   315.8678 eV,   23.2156 Ry                                         
                                                                                
   TITEL  = PAW_PBE I 08Apr2002                                                 
   LULTRA =        F    use ultrasoft PP ?                                      
   IUNSCR =        1    unscreen: 0-lin 1-nonlin 2-no                           
   RPACOR =    2.200    partial core radius                                     
   POMASS =  126.904; ZVAL   =    7.000    mass and valenz                      
   RCORE  =    2.300    outmost cutoff radius                                   
   RWIGS  =    2.810; RWIGS  =    1.487    wigner-seitz radius (au A)           
   ENMAX  =  175.647; ENMIN  =  131.735 eV                                      
   ICORE  =        3    local potential                                         
   LCOR   =        T    correct aug charges                                     
   LPAW   =        T    paw PP                                                  
   EAUG   =  370.139                                                            
   DEXC   =    0.000                                                            
   RMAX   =    2.359    core radius for proj-oper                               
   RAUG   =    1.300    factor for augmentation sphere                          
   RDEP   =    2.392    radius for radial grids                                 
   RDEPT  =    2.170    core radius for aug-charge                              
                                                                                
   Atomic configuration                                                         
   13 entries                                                                   
     n  l   j            E        occ.                                          
     1  0  0.50    -32976.3739   2.0000                                         
     2  0  0.50     -5094.5933   2.0000                                         
     2  1  1.50     -4572.0131   6.0000                                         
     3  0  0.50     -1028.2813   2.0000                                         
     3  1  1.50      -859.0250   6.0000                                         
     3  2  2.50      -605.7620  10.0000                                         
     4  0  0.50      -180.5540   2.0000                                         
     4  1  1.50      -127.5306   6.0000                                         
     4  2  2.50       -50.2720  10.0000                                         
     5  0  0.50       -17.4058   2.0000                                         
     5  1  0.50        -7.0851   5.0000                                         
     5  2  1.50        -7.0750   0.0000                                         
     4  3  2.50        -7.0750   0.0000                                         
   Description                                                                  
     l       E           TYP  RCUT    TYP  RCUT                                 
     0    -17.4058016     23  2.300                                             
     0    -18.7663842     23  2.300                                             
     1     -7.0850686     23  2.300                                             
     1     -4.2150896     23  2.300                                             
     2     -7.0750295     23  2.300                                             
     3     -1.3605826     23  2.300                                             
  local pseudopotential read in
  partial core-charges read in
  partial kinetic energy density read in
  atomic valenz-charges read in
  non local Contribution for L=           0  read in
    real space projection operators read in
  non local Contribution for L=           0  read in
    real space projection operators read in
  non local Contribution for L=           1  read in
    real space projection operators read in
  non local Contribution for L=           1  read in
    real space projection operators read in
  non local Contribution for L=           2  read in
    real space projection operators read in
    PAW grid and wavefunctions read in
 
   number of l-projection  operators is LMAX  =           5
   number of lm-projection operators is LMMAX =          13
 
 POTCAR:    PAW_PBE S 06Sep2000                   
   VRHFIN =S : s2p4                                                             
   LEXCH  = PE                                                                  
   EATOM  =   276.8230 eV,   20.3459 Ry                                         
                                                                                
   TITEL  = PAW_PBE S 06Sep2000                                                 
   LULTRA =        F    use ultrasoft PP ?                                      
   IUNSCR =        1    unscreen: 0-lin 1-nonlin 2-no                           
   RPACOR =    1.500    partial core radius                                     
   POMASS =   32.066; ZVAL   =    6.000    mass and valenz                      
   RCORE  =    1.900    outmost cutoff radius                                   
   RWIGS  =    2.200; RWIGS  =    1.164    wigner-seitz radius (au A)           
   ENMAX  =  258.689; ENMIN  =  194.016 eV                                      
   ICORE  =        2    local potential                                         
   LCOR   =        T    correct aug charges                                     
   LPAW   =        T    paw PP                                                  
   EAUG   =  335.092                                                            
   DEXC   =    0.000                                                            
   RMAX   =    1.942    core radius for proj-oper                               
   RAUG   =    1.300    factor for augmentation sphere                          
   RDEP   =    1.954    radius for radial grids                                 
   RDEPT  =    1.744    core radius for aug-charge                              
                                                                                
   Atomic configuration                                                         
    6 entries                                                                   
     n  l   j            E        occ.                                          
     1  0  0.50     -2405.8406   2.0000                                         
     2  0  0.50      -211.7007   2.0000                                         
     2  1  1.50      -156.4958   6.0000                                         
     3  0  0.50       -17.2562   2.0000                                         
     3  1  0.50        -7.0085   4.0000                                         
     3  2  1.50        -6.8029   0.0000                                         
   Description                                                                  
     l       E           TYP  RCUT    TYP  RCUT                                 
     0    -17.2561641     23  1.900                                             
     0    -15.8743224     23  1.900                                             
     1     -7.0085400     23  1.900                                             
     1     -2.7779785     23  1.900                                             
     2     -6.8029130     23  1.900                                             
  local pseudopotential read in
  partial core-charges read in
  partial kinetic energy density read in
  atomic valenz-charges read in
  non local Contribution for L=           0  read in
    real space projection operators read in
  non local Contribution for L=           0  read in
    real space projection operators read in
  non local Contribution for L=           1  read in
    real space projection operators read in
  non local Contribution for L=           1  read in
    real space projection operators read in
    PAW grid and wavefunctions read in
 
   number of l-projection  operators is LMAX  =           4
   number of lm-projection operators is LMMAX =           8
 
 POTCAR:    PAW_PBE P 06Sep2000                   
   VRHFIN =P : s2p3                                                             
   LEXCH  = PE                                                                  
   EATOM  =   176.0430 eV,   12.9388 Ry                                         
                                                                                
   TITEL  = PAW_PBE P 06Sep2000                                                 
   LULTRA =        F    use ultrasoft PP ?                                      
   IUNSCR =        1    unscreen: 0-lin 1-nonlin 2-no                           
   RPACOR =    1.500    partial core radius                                     
   POMASS =   30.974; ZVAL   =    5.000    mass and valenz                      
   RCORE  =    1.900    outmost cutoff radius                                   
   RWIGS  =    2.330; RWIGS  =    1.233    wigner-seitz radius (au A)           
   ENMAX  =  255.040; ENMIN  =  191.280 eV                                      
   ICORE  =        2    local potential                                         
   LCOR   =        T    correct aug charges                                     
   LPAW   =        T    paw PP                                                  
   EAUG   =  342.924                                                            
   DEXC   =    0.000                                                            
   RMAX   =    1.935    core radius for proj-oper                               
   RAUG   =    1.300    factor for augmentation sphere                          
   RDEP   =    1.931    radius for radial grids                                 
   RDEPT  =    1.794    core radius for aug-charge                              
                                                                                
   Atomic configuration                                                         
    6 entries                                                                   
     n  l   j            E        occ.                                          
     1  0  0.50     -2084.0982   2.0000                                         
     2  0  0.50      -173.9859   2.0000                                         
     2  1  1.50      -124.4865   6.0000                                         
     3  0  0.50       -13.9692   2.0000                                         
     3  1  0.50        -5.5067   3.0000                                         
     3  2  1.50        -5.4423   0.0000                                         
   Description                                                                  
     l       E           TYP  RCUT    TYP  RCUT                                 
     0    -13.9691527     23  1.900                                             
     0    -11.7794650     23  1.900                                             
     1     -5.5066937     23  1.900                                             
     1     -0.2556953     23  1.900                                             
     2     -5.4423304     23  1.900                                             
  local pseudopotential read in
  partial core-charges read in
  partial kinetic energy density read in
  atomic valenz-charges read in
  non local Contribution for L=           0  read in
    real space projection operators read in
  non local Contribution for L=           0  read in
    real space projection operators read in
  non local Contribution for L=           1  read in
    real space projection operators read in
  non local Contribution for L=           1  read in
    real space projection operators read in
    PAW grid and wavefunctions read in
 
   number of l-projection  operators is LMAX  =           4
   number of lm-projection operators is LMMAX =           8
 
 Optimization of the real space projectors (new method)

 maximal supplied QI-value         = 18.33
 optimisation between [QCUT,QGAM] = [  8.43, 17.05] = [ 19.91, 81.38] Ry 
 Optimized for a Real-space Cutoff    1.60 Angstroem

   l    n(q)    QCUT    max X(q) W(low)/X(q) W(high)/X(q)  e(spline) 
   0      8     8.432    33.825    0.85E-04    0.69E-04    0.12E-06
   0      8     8.432     8.944    0.64E-04    0.57E-04    0.91E-07
   1      8     8.432     4.214    0.51E-04    0.11E-03    0.64E-07
 Optimization of the real space projectors (new method)

 maximal supplied QI-value         = 16.25
 optimisation between [QCUT,QGAM] = [  8.45, 17.06] = [ 20.00, 81.54] Ry 
 Optimized for a Real-space Cutoff    1.75 Angstroem

   l    n(q)    QCUT    max X(q) W(low)/X(q) W(high)/X(q)  e(spline) 
   0      9     8.451   194.483    0.52E-04    0.73E-04    0.77E-07
   0      9     8.451   190.334    0.51E-04    0.71E-04    0.75E-07
   1      8     8.451   116.687    0.93E-04    0.12E-03    0.22E-06
   1      8     8.451    88.696    0.92E-04    0.12E-03    0.22E-06
   2      8     8.451     4.877    0.16E-04    0.50E-04    0.44E-07
 Optimization of the real space projectors (new method)

 maximal supplied QI-value         = 19.84
 optimisation between [QCUT,QGAM] = [  8.53, 17.06] = [ 20.39, 81.54] Ry 
 Optimized for a Real-space Cutoff    1.75 Angstroem

   l    n(q)    QCUT    max X(q) W(low)/X(q) W(high)/X(q)  e(spline) 
   0      9     8.532   187.594    0.67E-04    0.16E-04    0.31E-06
   0      9     8.532   164.243    0.66E-04    0.15E-04    0.31E-06
   1      8     8.532    67.533    0.89E-04    0.21E-03    0.25E-06
   1      8     8.532    50.729    0.87E-04    0.20E-03    0.25E-06
 Optimization of the real space projectors (new method)

 maximal supplied QI-value         = 19.84
 optimisation between [QCUT,QGAM] = [  8.53, 17.06] = [ 20.39, 81.54] Ry 
 Optimized for a Real-space Cutoff    1.75 Angstroem

   l    n(q)    QCUT    max X(q) W(low)/X(q) W(high)/X(q)  e(spline) 
   0      9     8.532   160.924    0.60E-04    0.18E-04    0.30E-06
   0      9     8.532   130.086    0.59E-04    0.18E-04    0.30E-06
   1      8     8.532    74.434    0.88E-04    0.20E-03    0.24E-06
   1      8     8.532    49.120    0.85E-04    0.20E-03    0.24E-06

 ----------------------------------------------------------------------------- 
|                                                                             |
|  ADVICE TO THIS USER RUNNING 'VASP/VAMP'   (HEAR YOUR MASTER'S VOICE ...):  |
|                                                                             |
|      You enforced a specific xc-type in the INCAR file,                     |
|      a different type was found on the POTCAR file                          |
|          I HOPE YOU KNOW, WHAT YOU ARE  DOING                               |
|                                                                             |
 ----------------------------------------------------------------------------- 

  PAW_PBE Li 17Jan2003                  :
 energy of atom  1       EATOM=   -5.3001
 kinetic energy error for atom=    0.0000 (will be added to EATOM!!)
  PAW_PBE I 08Apr2002                   :
 energy of atom  2       EATOM= -315.8678
 kinetic energy error for atom=    0.0040 (will be added to EATOM!!)
  PAW_PBE S 06Sep2000                   :
 energy of atom  3       EATOM= -276.8230
 kinetic energy error for atom=    0.0122 (will be added to EATOM!!)
  PAW_PBE P 06Sep2000                   :
 energy of atom  4       EATOM= -176.0430
 kinetic energy error for atom=    0.0061 (will be added to EATOM!!)
 
 
 POSCAR: Li192 P32 S160 I32                      
  positions in direct lattice
  velocities in cartesian coordinates
 exchange correlation table for  LEXCH =       14
   RHO(1)=    0.500       N(1)  =     2000
   RHO(2)=  100.500       N(2)  =     4000
 


--------------------------------------------------------------------------------------------------------


 ion  position               nearest neighbor table
   1  0.890  0.977  0.975- 353 2.39 271 2.50 262 2.51 208 2.88 397 3.06
   2  0.911  0.005  0.419- 354 2.39 237 2.49 261 2.51 207 2.89  94 3.12  86 3.30
   3  0.113  0.493  0.004- 355 2.35 283 2.44 274 2.45 395 3.00  95 3.24  42 3.28
   4  0.992  0.504  0.389- 356 2.33 225 2.43 239 2.44 387 3.00 140 3.25
   5  0.419  0.995  0.922- 357 2.38 234 2.51 258 2.56 204 2.82  89 3.24
   6  0.486  0.888  0.486- 358 2.37 303 2.44 292 2.50 203 3.00 408 3.02  73 3.02 142 3.22
   7  0.484  0.519  0.115- 359 2.35 255 2.44 241 2.49 211 2.99 391 3.02  91 3.14
   8  0.385  0.520  0.515- 360 2.37 259 2.46 266 2.50 212 2.96 396 3.00  75 3.07
   9  0.235  0.611  0.279- 371 2.32 331 2.44 339 2.45 411 2.92 195 3.01  99 3.05  25 3.26
  10  0.334  0.497  0.832- 372 2.40 236 2.51 260 2.57 202 2.80  26 3.27
  11  0.334  0.997  0.326- 369 2.40 233 2.54 257 2.60 203 2.99  97 3.23  73 3.30
  12  0.337  0.082  0.758- 370 2.40 330 2.49 234 2.54 210 2.90 106 3.08
  13  0.668  0.499  0.336- 375 2.41 277 2.52 229 2.57 199 2.83
  14  0.725  0.615  0.765- 376 2.36 344 2.43 336 2.48 112 2.96 200 2.97 416 3.01
  15  0.636  0.988  0.237- 373 2.34 231 2.44 253 2.45 389 2.97 149 3.16 223 3.21
  16  0.670  0.086  0.742- 374 2.38 342 2.49 254 2.56 198 2.86 102 3.13
  17  0.058  0.249  0.351- 361 2.40 297 2.48 309 2.88 193 2.94 133 3.03 345 3.04
  18  0.091  0.246  0.671- 362 2.41 338 2.52 314 2.53 218 2.86  34 3.11 134 3.21
  19  0.083  0.831  0.254- 363 2.38 227 2.48 347 2.50 219 2.93 155 3.15
  20  0.111  0.772  0.725- 364 2.30 340 2.40 348 2.42 412 2.89 220 2.95  68 3.01
  21  0.513  0.236  0.365- 365 2.35 305 2.44 301 2.46 406 3.02 197 3.10  53 3.14 129 3.25
  22  0.420  0.244  0.670- 366 2.38 290 2.50 322 2.59 210 2.84
  23  0.415  0.835  0.246- 367 2.41 243 2.54 323 2.54 203 3.01  55 3.12
  24  0.478  0.707  0.648- 368 2.34 320 2.53 292 2.65 212 2.79  72 2.92  75 2.98 408 3.08  56 3.28

  25  0.334  0.499  0.335- 371 2.41 259 2.50 235 2.53 201 2.81 169 3.13   9 3.26
  26  0.174  0.495  0.841- 372 2.38 226 2.48 274 2.54 196 2.87 148 3.10  10 3.27
  27  0.165  0.002  0.163- 369 2.39 249 2.46 281 2.49 219 2.95 171 3.02
  28  0.163  0.078  0.757- 370 2.40 338 2.50 250 2.61 194 2.82  98 3.17
  29  0.750  0.385  0.246- 375 2.32 325 2.43 349 2.45 413 2.98 111 3.29 151 3.29 221 3.43
  30  0.861  0.516  0.773- 376 2.36 240 2.43 246 2.49 388 3.04 152 3.11 174 3.22
  31  0.863  0.009  0.234- 373 2.35 237 2.44 247 2.47 385 2.97 101 3.08 213 3.08
  32  0.835  0.921  0.754- 374 2.42 328 2.53 248 2.56 208 2.82
  33  0.925  0.242  0.158- 361 2.40 293 2.52 325 2.70 213 2.80  65 3.11
  34  0.023  0.366  0.736- 362 2.36 246 2.47 226 2.48 218 2.99 388 3.00  18 3.11
  35  0.016  0.725  0.365- 363 2.37 299 2.46 311 2.46 404 3.00 195 3.01  51 3.08
  36  0.891  0.750  0.752- 364 2.29 336 2.39 328 2.41 416 2.86 136 3.21  68 3.28
  37  0.521  0.267  0.140- 365 2.35 317 2.45 289 2.46 221 3.02 405 3.02 129 3.09
  38  0.585  0.256  0.674- 366 2.39 318 2.53 342 2.58 222 2.85 158 3.24
  39  0.583  0.669  0.252- 367 2.41 255 2.56 343 2.60 199 2.83 131 3.29
  40  0.505  0.833  0.839- 368 2.40 304 2.47 232 2.49 204 2.89 132 2.99 160 3.28
  41  0.908  0.582  0.504- 356 2.38 311 2.47 263 2.47 216 2.83  88 3.07
  42  0.003  0.582  0.928- 355 2.31 240 2.47 312 2.51  52 2.80 196 2.94  80 3.20   3 3.28
  43  0.916  0.002  0.587- 354 2.35 248 2.46 272 2.48 214 2.83  77 3.11
  44  0.983  0.114  0.011- 353 2.34 310 2.42 313 2.43 401 2.96  85 3.00 213 3.15 165 3.24  93 3.27
                            78 3.27
  45  0.611  0.475  0.514- 360 2.37 277 2.46 288 2.48 222 2.97 400 3.01 144 3.07
  46  0.573  0.421  0.008- 359 2.32 278 2.51 302 2.55 181 2.81 221 2.96 143 3.13
  47  0.526  0.017  0.387- 358 2.38 231 2.43 233 2.51 197 2.91  90 2.92 389 2.99
  48  0.581  0.007  0.913- 357 2.35 232 2.50 280 2.54 198 2.85
  49  0.006  0.362  0.243- 361 2.33 225 2.40 245 2.45 387 2.99 153 3.20
  50  0.082  0.246  0.838- 362 2.41 346 2.58 298 2.58 194 2.86
  51  0.084  0.666  0.243- 363 2.39 251 2.47 339 2.55 195 2.92  35 3.08
  52  0.014  0.681  0.834- 364 2.33 240 2.53 312 2.55  42 2.80 196 2.88 156 3.20 136 3.22
  53  0.579  0.162  0.248- 365 2.40 341 2.52 253 2.53 197 2.85  21 3.14
  54  0.475  0.364  0.766- 366 2.36 230 2.44 242 2.48 202 2.93 392 2.98  70 3.03
  55  0.488  0.769  0.363- 367 2.35 307 2.45 303 2.48 408 2.98 203 3.08  23 3.12
  56  0.513  0.653  0.795- 368 2.39 236 2.47 256 2.81 200 2.86 160 3.26  24 3.28
  57  0.165  0.171  0.492- 378 2.40 282 2.50 314 2.54 193 2.88 185 3.25
  58  0.247  0.162  0.925- 377 2.40 330 2.50 258 2.55 194 2.86 177 3.30
  59  0.263  0.785  0.392- 380 2.36 347 2.40 331 2.53 116 2.98 203 2.99 411 3.01 187 3.25
  60  0.138  0.758  0.029- 379 2.35 315 2.42 300 2.52 163 2.99 219 2.99 403 3.02 188 3.18
  61  0.752  0.168  0.581- 382 2.40 342 2.48 286 2.55 214 2.88 182 3.20
  62  0.733  0.264  0.116- 381 2.36 341 2.47 325 2.49 413 2.99 221 2.99 181 3.03
  63  0.825  0.744  0.588- 384 2.42 296 2.51 328 2.61 216 2.87 184 3.24
  64  0.672  0.744  0.913- 383 2.42 304 2.51 352 2.59 200 2.85
  65  0.898  0.257  0.307- 361 2.38 333 2.51 205 2.81 325 2.86  33 3.11
  66  0.918  0.255  0.831- 362 2.41 310 2.60 334 2.60 206 2.90
  67  0.913  0.672  0.247- 363 2.39 239 2.51 335 2.57 215 2.83 135 3.23
  68  0.994  0.834  0.662- 364 2.38 248 2.46 296 2.47 220 2.88  20 3.01  36 3.28
  69  0.416  0.330  0.250- 365 2.40 321 2.57 241 2.60 201 2.85
  70  0.412  0.247  0.833- 366 2.41 306 2.49 330 2.51 202 2.81  54 3.03 130 3.24
  71  0.482  0.730  0.137- 367 2.38 291 2.47 319 2.48 211 2.98 407 3.03 159 3.18
  72  0.502  0.846  0.670- 368 2.39 244 2.42 292 2.59 224 2.83  24 2.92 160 3.10
  73  0.387  0.998  0.478- 358 2.37 257 2.44 268 2.45 394 2.98   6 3.02 203 3.22  11 3.30
  74  0.525  0.887  0.014- 357 2.37 304 2.45 291 2.46 407 2.99 223 3.00  81 3.09  89 3.28
  75  0.506  0.579  0.583- 360 2.34 256 2.46 320 2.53 212 2.91  24 2.98   8 3.07
  76  0.587  0.583  0.003- 359 2.39 319 2.47 287 2.50 200 2.89  83 3.15
  77  0.987  0.115  0.515- 354 2.36 309 2.47 314 2.48 402 3.00 214 3.04  43 3.11
  78  0.018  0.020  0.885- 353 2.38 238 2.44 228 2.47 194 2.92  93 2.95 386 2.98  44 3.27
  79  0.077  0.585  0.501- 356 2.36 316 2.50 284 2.52 195 2.89  96 3.23
  80  0.990  0.580  0.084- 355 2.40 251 2.49 315 2.54 215 2.85  42 3.20
  81  0.587  0.007  0.082- 357 2.36 285 2.47 253 2.52 223 2.83  74 3.09 141 3.28  89 3.30
  82  0.477  0.024  0.612- 358 2.40 244 2.47 254 2.49 210 2.93 390 3.05  90 3.25
  83  0.511  0.514  0.888- 359 2.35 230 2.44 236 2.46 392 2.96  76 3.15 200 3.20  91 3.30
  84  0.508  0.581  0.420- 360 2.40 235 2.51 307 2.55 199 2.82
  85  0.981  0.009  0.113- 353 2.38 247 2.46 249 2.47 213 2.97  44 3.00 385 3.02 137 3.27
  86  0.073  0.001  0.421- 354 2.32 227 2.54 275 2.59 105 2.78 193 2.85 138 3.20   2 3.30
  87  0.885  0.484  0.988- 355 2.36 264 2.44 269 2.48 399 2.98 139 3.11 206 3.12 190 3.27
  88  0.983  0.518  0.617- 356 2.36 246 2.44 252 2.49 388 2.99 216 3.06  41 3.07 136 3.27
  89  0.426  0.995  0.080- 357 2.31 243 2.46 267 2.48  97 2.76 209 2.94 141 3.05   5 3.24  74 3.28
                            81 3.30
  90  0.528  0.115  0.491- 358 2.38 318 2.42 305 2.51  47 2.92 197 2.97 406 3.02  82 3.25
  91  0.418  0.590  0.995- 359 2.38 308 2.49 260 2.51 211 2.90   7 3.14  83 3.30
  92  0.489  0.419  0.417- 360 2.38 229 2.51 301 2.52 201 2.85
  93  0.115  0.026  0.991- 353 2.37 281 2.42 276 2.48 194 2.94  78 2.95 393 2.98  44 3.27
  94  0.976  0.886  0.489- 354 2.38 299 2.46 296 2.48 404 3.01 207 3.02   2 3.12
  95  0.000  0.415  0.083- 355 2.36 293 2.48 245 2.50 217 2.81   3 3.24
  96  0.078  0.427  0.509- 356 2.33 297 2.51 273 2.51 185 2.84 218 2.91  79 3.23 140 3.26
  97  0.326  0.014  0.169- 369 2.31 267 2.50 243 2.55  89 2.76 209 2.84  11 3.23 171 3.27
  98  0.166  0.924  0.742- 370 2.37 348 2.49 228 2.56 220 2.84  28 3.17
  99  0.165  0.493  0.339- 371 2.41 225 2.53 273 2.53 195 2.91   9 3.05 169 3.25
 100  0.330  0.504  0.668- 372 2.38 242 2.50 266 2.59 212 2.82
 101  0.752  0.086  0.168- 373 2.39 285 2.47 341 2.48 213 2.86  31 3.08
 102  0.742  0.021  0.860- 374 2.33 262 2.43 280 2.46 397 2.98  16 3.13 198 3.17
 103  0.834  0.499  0.329- 375 2.39 263 2.52 239 2.58 205 2.83
 104  0.638  0.483  0.719- 376 2.39 230 2.47 256 2.54 222 2.91 392 3.03
 105  0.171  0.982  0.329- 369 2.30 275 2.46 227 2.48  86 2.78 145 3.05 193 3.12 171 3.26
 106  0.263  0.028  0.638- 370 2.37 268 2.47 282 2.48 210 2.93 394 3.03  12 3.08
 107  0.330  0.500  0.170- 371 2.42 265 2.57 241 2.61 211 2.87
 108  0.234  0.385  0.735- 372 2.38 322 2.48 346 2.51 218 3.02 410 3.04 170 3.16
 109  0.753  0.918  0.330- 373 2.39 351 2.47 279 2.57 207 2.84 175 3.17
 110  0.734  0.982  0.636- 374 2.35 272 2.44 286 2.48 398 2.98 224 3.00 176 3.08
 111  0.661  0.497  0.172- 375 2.40 287 2.48 255 2.52 221 2.86  29 3.29
 112  0.715  0.509  0.864- 376 2.38 278 2.44 264 2.49 200 2.89  14 2.96 399 3.03
 113  0.367  0.240  0.013- 377 2.35 289 2.46 306 2.47 405 2.97 177 3.07 209 3.13
 114  0.268  0.261  0.387- 378 2.36 345 2.45 329 2.46 409 2.97 201 3.02 162 3.15 178 3.29
 115  0.361  0.764  0.966- 379 2.41 308 2.51 291 2.52 204 2.95 407 3.05
 116  0.364  0.756  0.493- 380 2.36 307 2.44 292 2.45  59 2.98 408 3.02 124 3.04 203 3.25
 117  0.755  0.242  0.888- 381 2.35 334 2.44 350 2.44 414 2.99 125 3.26 181 3.28
 118  0.753  0.339  0.585- 382 2.38 270 2.47 326 2.47 222 2.86 166 3.06
 119  0.834  0.747  0.917- 383 2.39 312 2.50 336 2.52 208 2.87 192 3.09
 120  0.765  0.862  0.487- 384 2.34 272 2.43 279 2.47 398 3.02 207 3.07 191 3.12 168 3.30
 121  0.139  0.267  0.012- 377 2.36 298 2.46 313 2.49 401 3.03 161 3.11 217 3.17
 122  0.265  0.225  0.614- 378 2.36 338 2.46 322 2.47 410 3.01 210 3.06 178 3.10
 123  0.278  0.714  0.109- 379 2.35 323 2.48 339 2.49 211 2.84 411 3.02 179 3.21
 124  0.279  0.725  0.611- 380 2.37 340 2.44 324 2.50 212 2.85 412 3.00 116 3.04
 125  0.669  0.166  0.999- 381 2.38 285 2.48 317 2.48 198 2.86 181 3.25 117 3.26
 126  0.866  0.254  0.497- 382 2.35 309 2.45 294 2.46 402 2.97 189 3.26
 127  0.663  0.755  0.077- 383 2.40 319 2.51 343 2.62 223 2.86
 128  0.731  0.636  0.477- 384 2.37 288 2.44 263 2.49 199 2.93 400 2.99 168 3.03
 129  0.582  0.334  0.260- 365 2.39 229 2.53 349 2.55 221 2.91  37 3.09  21 3.25
 130  0.515  0.140  0.776- 366 2.34 234 2.43 254 2.46 390 2.97 198 3.04 158 3.09  70 3.24
 131  0.582  0.829  0.245- 367 2.39 351 2.56 231 2.58 223 2.81  39 3.29
 132  0.390  0.766  0.778- 368 2.32 332 2.43 324 2.48 412 2.92 204 2.98  40 2.99
 133  0.015  0.135  0.266- 361 2.35 237 2.44 249 2.45 385 3.01 193 3.02  17 3.03
 134  0.991  0.140  0.729- 362 2.34 238 2.45 250 2.45 386 2.98 154 3.10 214 3.14  18 3.21
 135  0.915  0.829  0.259- 363 2.41 247 2.51 327 2.56 207 2.82  67 3.23
 136  1.000  0.665  0.678- 364 2.39 252 2.49 316 2.51 216 2.85  36 3.21  52 3.22  88 3.27
 137  0.025  0.889  0.016- 353 2.37 300 2.46 295 2.52 219 3.03 403 3.05  85 3.27
 138  0.084  0.998  0.577- 354 2.40 250 2.52 282 2.57 220 2.86  86 3.20
 139  1.000  0.419  0.914- 355 2.40 298 2.48 226 2.49 206 2.85  87 3.11
 140  0.920  0.415  0.499- 356 2.37 270 2.48 294 2.48 205 2.81   4 3.25  96 3.26
 141  0.488  0.114  0.014- 357 2.36 306 2.45 317 2.46 209 2.98 405 3.02  89 3.05  81 3.28
 142  0.612  0.975  0.523- 358 2.37 286 2.50 279 2.50 224 2.91 398 3.04   6 3.22
 143  0.420  0.420  0.996- 359 2.39 265 2.49 289 2.53 202 2.80  46 3.13
 144  0.493  0.415  0.584- 360 2.39 242 2.48 290 2.49 222 2.89  45 3.07
 145  0.222  0.110  0.271- 369 2.36 329 2.45 337 2.48 193 2.86 409 2.93 105 3.05
 146  0.333  0.917  0.747- 370 2.39 324 2.50 244 2.52 204 2.87 172 3.16
 147  0.166  0.500  0.172- 371 2.40 251 2.57 283 2.60 217 2.89
 148  0.235  0.613  0.767- 372 2.35 340 2.43 332 2.47 412 3.01  26 3.10 196 3.15 170 3.28
 149  0.750  0.916  0.162- 373 2.39 327 2.47 271 2.48 223 2.82  15 3.16
 150  0.835  0.082  0.742- 374 2.38 334 2.52 238 2.55 214 2.86
 151  0.831  0.498  0.166- 375 2.40 269 2.50 245 2.55 215 2.85 173 3.24  29 3.29
 152  0.774  0.391  0.769- 376 2.37 350 2.46 326 2.48 206 2.96 414 3.03  30 3.11
 153  0.086  0.248  0.172- 361 2.39 337 2.49 313 2.62 217 2.85  49 3.20
 154  0.921  0.260  0.667- 362 2.40 294 2.50 326 2.51 214 2.88 134 3.10
 155  0.006  0.763  0.139- 363 2.34 315 2.45 295 2.45 403 2.98  19 3.15 219 3.27
 156  0.002  0.837  0.836- 364 2.41 228 2.50 300 2.59 208 2.87  52 3.20
 157  0.417  0.167  0.246- 365 2.41 329 2.53 233 2.60 209 2.84
 158  0.586  0.261  0.832- 366 2.38 302 2.46 350 2.52 198 2.94 130 3.09  38 3.24
 159  0.415  0.664  0.261- 367 2.41 235 2.53 331 2.58 211 2.92  71 3.18
 160  0.611  0.766  0.740- 368 2.29 344 2.39 352 2.41 416 2.87  72 3.10  56 3.26  40 3.28 224 3.30

 161  0.255  0.336  0.083- 377 2.40 265 2.48 321 2.49 217 2.90 121 3.11
 162  0.330  0.336  0.506- 378 2.40 290 2.48 266 2.53 201 2.88 114 3.15 185 3.15
 163  0.244  0.859  0.031- 379 2.36 267 2.44 276 2.49  60 2.99 393 3.02 219 3.07
 164  0.230  0.643  0.474- 380 2.37 259 2.42 284 2.53 195 3.01 396 3.05 180 3.26
 165  0.833  0.167  0.009- 381 2.35 262 2.48 310 2.52 213 2.83  44 3.24
 166  0.638  0.274  0.515- 382 2.36 301 2.43 318 2.47 406 3.01 118 3.06 222 3.08
 167  0.830  0.758  0.086- 383 2.40 327 2.52 295 2.55 215 2.89 183 3.10
 168  0.670  0.755  0.411- 384 2.40 351 2.50 303 2.51 199 2.85 128 3.03 120 3.30
 169  0.257  0.387  0.264- 371 2.32 345 2.39 321 2.44 409 2.89  25 3.13 201 3.19  99 3.25
 170  0.168  0.507  0.666- 372 2.40 252 2.49 284 2.55 218 2.88 108 3.16 148 3.28
 171  0.241  0.889  0.220- 369 2.33 323 2.41 347 2.45 411 2.92  27 3.02 219 3.11 105 3.26  97 3.27

 172  0.260  0.987  0.864- 370 2.35 276 2.44 258 2.48 393 2.99 146 3.16 204 3.29
 173  0.751  0.613  0.241- 375 2.34 335 2.45 343 2.45 415 2.99 151 3.24 215 3.35
 174  0.777  0.518  0.640- 376 2.39 288 2.49 270 2.50 216 2.89 400 3.05  30 3.22
 175  0.744  0.072  0.332- 373 2.34 261 2.51 333 2.53 182 2.83 197 2.97 109 3.17
 176  0.666  0.922  0.756- 374 2.39 352 2.49 232 2.50 224 2.87 110 3.08
 177  0.256  0.169  0.086- 377 2.37 337 2.44 281 2.46 209 2.83 113 3.07  58 3.30
 178  0.333  0.161  0.495- 378 2.36 305 2.48 257 2.52 210 2.90 122 3.10 114 3.29
 179  0.233  0.634  0.981- 379 2.37 283 2.45 260 2.46 196 2.90 188 2.97 395 2.98 123 3.21
 180  0.135  0.759  0.530- 380 2.39 316 2.44 299 2.47 187 2.92 220 2.96 404 3.00 164 3.26
 181  0.670  0.325  0.996- 381 2.31 278 2.45 302 2.46  46 2.81 221 2.98  62 3.03 125 3.25 190 3.27
                           117 3.28
 182  0.740  0.174  0.426- 382 2.32 333 2.49 261 2.56 175 2.83 197 2.88  61 3.20 189 3.26
 183  0.763  0.638  0.022- 383 2.36 264 2.45 287 2.48 215 2.98 399 3.00 167 3.10
 184  0.668  0.754  0.580- 384 2.38 320 2.52 344 2.55 224 2.85  63 3.24
 185  0.176  0.328  0.509- 378 2.33 297 2.49 273 2.52  96 2.84 218 2.91 162 3.15  57 3.25
 186  0.257  0.328  0.915- 377 2.39 346 2.51 274 2.54 202 2.82
 187  0.230  0.866  0.526- 380 2.35 268 2.40 275 2.51 180 2.92 220 2.93 394 2.99  59 3.25
 188  0.213  0.748  0.893- 379 2.36 348 2.42 332 2.50 179 2.97 412 3.00 196 3.03  60 3.18
 189  0.754  0.333  0.415- 382 2.40 277 2.46 349 2.52 205 2.83 126 3.26 182 3.26
 190  0.830  0.334  0.000- 381 2.38 293 2.48 269 2.52 206 2.83  87 3.27 181 3.27
 191  0.836  0.744  0.419- 384 2.38 311 2.48 335 2.56 207 2.85 120 3.12
 192  0.762  0.864  0.979- 383 2.36 280 2.47 271 2.48 397 3.02 208 3.09 119 3.09
 193  0.121  0.121  0.368-  86 2.85 145 2.86  57 2.88  17 2.94 133 3.02 105 3.12
 194  0.121  0.119  0.882-  28 2.82  58 2.86  50 2.86  78 2.92  93 2.94
 195  0.124  0.625  0.374-  79 2.89  99 2.91  51 2.92  35 3.01   9 3.01 164 3.01
 196  0.133  0.623  0.882-  26 2.87  52 2.88 179 2.90  42 2.94 188 3.03 148 3.15
 197  0.617  0.126  0.377-  53 2.85 182 2.88  47 2.91  90 2.97 175 2.97  21 3.10
 198  0.631  0.129  0.869-  48 2.85  16 2.86 125 2.86 158 2.94 130 3.04 102 3.17
 199  0.630  0.626  0.375-  84 2.82  13 2.83  39 2.83 168 2.85 128 2.93
 200  0.626  0.619  0.872-  64 2.85  56 2.86  76 2.89 112 2.89  14 2.97  83 3.20
 201  0.366  0.371  0.374-  25 2.81  92 2.85  69 2.85 162 2.88 114 3.02 169 3.19
 202  0.379  0.374  0.873- 143 2.80  10 2.80  70 2.81 186 2.82  54 2.93
 203  0.380  0.871  0.385-  59 2.99  11 2.99   6 3.00  23 3.01  55 3.08  73 3.22 116 3.25
 204  0.374  0.874  0.874-   5 2.82 146 2.87  40 2.89 115 2.95 132 2.98 172 3.29
 205  0.879  0.376  0.374-  65 2.81 140 2.81 189 2.83 103 2.83
 206  0.871  0.380  0.877- 190 2.83 139 2.85  66 2.90 152 2.96  87 3.12
 207  0.874  0.874  0.383- 135 2.82 109 2.84 191 2.85   2 2.89  94 3.02 120 3.07
 208  0.874  0.876  0.879-  32 2.82 119 2.87 156 2.87   1 2.88 192 3.09
 209  0.385  0.129  0.116- 177 2.83  97 2.84 157 2.84  89 2.94 141 2.98 113 3.13
 210  0.372  0.122  0.626-  22 2.84 178 2.90  12 2.90  82 2.93 106 2.93 122 3.06
 211  0.382  0.624  0.129- 123 2.84 107 2.87  91 2.90 159 2.92  71 2.98   7 2.99
 212  0.375  0.624  0.616-  24 2.79 100 2.82 124 2.85  75 2.91   8 2.96
 213  0.883  0.115  0.128-  33 2.80 165 2.83 101 2.86  85 2.97  31 3.08  44 3.15
 214  0.883  0.132  0.620-  43 2.83 150 2.86  61 2.88 154 2.88  77 3.04 134 3.14
 215  0.866  0.627  0.125-  67 2.83  80 2.85 151 2.85 167 2.89 183 2.98 173 3.35
 216  0.875  0.620  0.633-  41 2.83 136 2.85  63 2.87 174 2.89  88 3.06
 217  0.124  0.373  0.124-  95 2.81 153 2.85 147 2.89 161 2.90 121 3.17
 218  0.127  0.377  0.633-  18 2.86 170 2.88  96 2.91 185 2.91  34 2.99 108 3.02
 219  0.125  0.869  0.123-  19 2.93  27 2.95  60 2.99 137 3.03 163 3.07 171 3.11 155 3.27
 220  0.123  0.871  0.621-  98 2.84 138 2.86  68 2.88 187 2.93  20 2.95 180 2.96
 221  0.629  0.367  0.130- 111 2.86 129 2.91  46 2.96 181 2.98  62 2.99  37 3.02  29 3.43
 222  0.625  0.379  0.622-  38 2.85 118 2.86 144 2.89 104 2.91  45 2.97 166 3.08
 223  0.622  0.880  0.124- 131 2.81 149 2.82  81 2.83 127 2.86  74 3.00  15 3.21
 224  0.629  0.880  0.627-  72 2.83 184 2.85 176 2.87 142 2.91 110 3.00 160 3.30
 225  0.055  0.450  0.303- 387 2.06  49 2.40   4 2.43  99 2.53
 226  0.066  0.447  0.815- 388 2.06  26 2.48  34 2.48 139 2.49
 227  0.061  0.932  0.319- 385 2.05 105 2.48  19 2.48  86 2.54
 228  0.058  0.941  0.804- 386 2.06  78 2.47 156 2.50  98 2.56
 229  0.558  0.441  0.318- 391 2.06  92 2.51 129 2.53  13 2.57
 230  0.554  0.447  0.799- 392 2.06  54 2.44  83 2.44 104 2.47
 231  0.549  0.938  0.301- 389 2.07  47 2.43  15 2.44 131 2.58
 232  0.560  0.939  0.814- 390 2.06  40 2.49 176 2.50  48 2.50
 233  0.440  0.059  0.309- 389 2.06  47 2.51  11 2.54 157 2.60
 234  0.443  0.055  0.817- 390 2.06 130 2.43   5 2.51  12 2.54
 235  0.442  0.558  0.319- 391 2.06  84 2.51  25 2.53 159 2.53
 236  0.436  0.561  0.806- 392 2.05  83 2.46  56 2.47  10 2.51
 237  0.945  0.049  0.311- 385 2.06  31 2.44 133 2.44   2 2.49
 238  0.943  0.056  0.799- 386 2.06  78 2.44 134 2.45 150 2.55
 239  0.939  0.564  0.301- 387 2.06   4 2.44  67 2.51 103 2.58
 240  0.955  0.573  0.818- 388 2.06  30 2.43  42 2.47  52 2.53
 241  0.441  0.444  0.200- 391 2.06   7 2.49  69 2.60 107 2.61
 242  0.436  0.447  0.687- 392 2.06  54 2.48 144 2.48 100 2.50
 243  0.428  0.945  0.190- 389 2.05  89 2.46  23 2.54  97 2.55
 244  0.441  0.944  0.695- 390 2.06  72 2.42  82 2.47 146 2.52
 245  0.943  0.446  0.186- 387 2.06  49 2.45  95 2.50 151 2.55
 246  0.943  0.453  0.709- 388 2.06  88 2.44  34 2.47  30 2.49
 247  0.948  0.930  0.198- 385 2.06  85 2.46  31 2.47 135 2.51
 248  0.939  0.938  0.687- 386 2.05  43 2.46  68 2.46  32 2.56
 249  0.059  0.048  0.197- 385 2.06 133 2.45  27 2.46  85 2.47
 250  0.060  0.053  0.685- 386 2.06 134 2.45 138 2.52  28 2.61
 251  0.058  0.564  0.184- 387 2.06  51 2.47  80 2.49 147 2.57
 252  0.064  0.563  0.696- 388 2.05  88 2.49 170 2.49 136 2.49
 253  0.551  0.057  0.188- 389 2.06  15 2.45  81 2.52  53 2.53
 254  0.556  0.058  0.699- 390 2.06 130 2.46  82 2.49  16 2.56
 255  0.557  0.557  0.201- 391 2.06   7 2.44 111 2.52  39 2.56
 256  0.552  0.570  0.693- 392 2.05  75 2.46 104 2.54  56 2.81
 257  0.299  0.062  0.430- 394 2.06  73 2.44 178 2.52  11 2.60
 258  0.314  0.059  0.946- 393 2.05 172 2.48  58 2.55   5 2.56
 259  0.299  0.553  0.439- 396 2.06 164 2.42   8 2.46  25 2.50
 260  0.313  0.553  0.943- 395 2.06 179 2.46  91 2.51  10 2.57
 261  0.809  0.070  0.437- 398 2.05   2 2.51 175 2.51 182 2.56
 262  0.809  0.065  0.948- 397 2.06 102 2.43 165 2.48   1 2.51
 263  0.811  0.554  0.436- 400 2.06  41 2.47 128 2.49 103 2.52
 264  0.795  0.551  0.947- 399 2.06  87 2.44 183 2.45 112 2.49
 265  0.319  0.436  0.062- 395 2.05 161 2.48 143 2.49 107 2.57
 266  0.301  0.443  0.561- 396 2.06   8 2.50 162 2.53 100 2.59
 267  0.316  0.947  0.068- 393 2.05 163 2.44  89 2.48  97 2.50
 268  0.303  0.953  0.552- 394 2.06 187 2.40  73 2.45 106 2.47
 269  0.803  0.436  0.064- 399 2.06  87 2.48 151 2.50 190 2.52
 270  0.815  0.438  0.555- 400 2.06 118 2.47 140 2.48 174 2.50
 271  0.805  0.945  0.058- 397 2.06 192 2.48 149 2.48   1 2.50
 272  0.812  0.950  0.551- 398 2.06 120 2.43 110 2.44  43 2.48
 273  0.184  0.434  0.446- 396 2.05  96 2.51 185 2.52  99 2.53
 274  0.200  0.434  0.946- 395 2.06   3 2.45 186 2.54  26 2.54
 275  0.183  0.943  0.442- 394 2.05 105 2.46 187 2.51  86 2.59
 276  0.197  0.944  0.956- 393 2.06 172 2.44  93 2.48 163 2.49
 277  0.696  0.436  0.438- 400 2.06  45 2.46 189 2.46  13 2.52
 278  0.681  0.436  0.952- 399 2.05 112 2.44 181 2.45  46 2.51
 279  0.696  0.948  0.438- 398 2.06 120 2.47 142 2.50 109 2.57
 280  0.689  0.954  0.944- 397 2.06 102 2.46 192 2.47  48 2.54
 281  0.200  0.065  0.064- 393 2.06  93 2.42 177 2.46  27 2.49
 282  0.186  0.066  0.552- 394 2.06 106 2.48  57 2.50 138 2.57
 283  0.201  0.551  0.061- 395 2.06   3 2.44 179 2.45 147 2.60
 284  0.186  0.561  0.555- 396 2.06  79 2.52 164 2.53 170 2.55
 285  0.691  0.067  0.065- 397 2.05 101 2.47  81 2.47 125 2.48
 286  0.693  0.061  0.554- 398 2.06 110 2.48 142 2.50  61 2.55
 287  0.687  0.555  0.068- 399 2.06 183 2.48 111 2.48  76 2.50
 288  0.698  0.550  0.553- 400 2.06 128 2.44  45 2.48 174 2.49
 289  0.452  0.315  0.053- 405 2.06  37 2.46 113 2.46 143 2.53
 290  0.431  0.311  0.568- 406 2.05 162 2.48 144 2.49  22 2.50
 291  0.446  0.802  0.047- 407 2.06  74 2.46  71 2.47 115 2.52
 292  0.450  0.801  0.563- 408 2.08 116 2.45   6 2.50  72 2.59  24 2.65
 293  0.934  0.316  0.060- 401 2.06  95 2.48 190 2.48  33 2.52
 294  0.949  0.314  0.561- 402 2.06 126 2.46 140 2.48 154 2.50
 295  0.939  0.808  0.050- 403 2.06 155 2.45 137 2.52 167 2.55
 296  0.932  0.800  0.563- 404 2.05  68 2.47  94 2.48  63 2.51
 297  0.070  0.320  0.449- 402 2.05  17 2.48 185 2.49  96 2.51
 298  0.052  0.312  0.941- 401 2.06 121 2.46 139 2.48  50 2.58
 299  0.051  0.799  0.453- 404 2.05  35 2.46  94 2.46 180 2.47
 300  0.060  0.800  0.942- 403 2.07 137 2.46  60 2.52 156 2.59
 301  0.547  0.315  0.450- 406 2.06 166 2.43  21 2.46  92 2.52
 302  0.566  0.319  0.936- 405 2.05 181 2.46 158 2.46  46 2.55
 303  0.565  0.806  0.449- 408 2.06   6 2.44  55 2.48 168 2.51
 304  0.568  0.804  0.939- 407 2.06  74 2.45  40 2.47  64 2.51
 305  0.442  0.192  0.451- 406 2.06  21 2.44 178 2.48  90 2.51
 306  0.451  0.198  0.937- 405 2.05 141 2.45 113 2.47  70 2.49
 307  0.451  0.689  0.446- 408 2.06 116 2.44  55 2.45  84 2.55
 308  0.450  0.688  0.930- 407 2.04  91 2.49 115 2.51
 309  0.957  0.203  0.439- 402 2.06 126 2.45  77 2.47  17 2.88
 310  0.933  0.198  0.944- 401 2.06  44 2.42 165 2.52  66 2.60
 311  0.937  0.684  0.446- 404 2.06  35 2.46  41 2.47 191 2.48
 312  0.940  0.687  0.934- 403 2.04 119 2.50  42 2.51  52 2.55
 313  0.050  0.200  0.059- 401 2.06  44 2.43 121 2.49 153 2.62
 314  0.065  0.196  0.560- 402 2.06  77 2.48  18 2.53  57 2.54
 315  0.049  0.686  0.057- 403 2.06  60 2.42 155 2.45  80 2.54
 316  0.050  0.684  0.567- 404 2.06 180 2.44  79 2.50 136 2.51
 317  0.565  0.199  0.052- 405 2.06  37 2.45 141 2.46 125 2.48
 318  0.555  0.202  0.567- 406 2.06  90 2.42 166 2.47  38 2.53
 319  0.562  0.688  0.055- 407 2.07  76 2.47  71 2.48 127 2.51
 320  0.567  0.686  0.564- 408 2.04 184 2.52  24 2.53  75 2.53
 321  0.308  0.310  0.189- 409 2.06 169 2.44 161 2.49  69 2.57
 322  0.309  0.296  0.701- 410 2.06 122 2.47 108 2.48  22 2.59
 323  0.312  0.801  0.187- 411 2.06 171 2.41 123 2.48  23 2.54
 324  0.314  0.809  0.693- 412 2.05 132 2.48 124 2.50 146 2.50
 325  0.812  0.293  0.203- 413 2.07  29 2.43  62 2.49  33 2.70  65 2.86
 326  0.811  0.310  0.687- 414 2.06 118 2.47 152 2.48 154 2.51
 327  0.809  0.816  0.193- 415 2.06 149 2.47 167 2.52 135 2.56
 328  0.811  0.815  0.694- 416 2.05  36 2.41  32 2.53  63 2.61
 329  0.308  0.188  0.300- 409 2.06 145 2.45 114 2.46 157 2.53
 330  0.308  0.183  0.820- 410 2.06  12 2.49  58 2.50  70 2.51
 331  0.307  0.698  0.317- 411 2.06   9 2.44  59 2.53 159 2.58
 332  0.299  0.702  0.818- 412 2.06 132 2.43 148 2.47 188 2.50
 333  0.802  0.182  0.321- 413 2.05 182 2.49  65 2.51 175 2.53
 334  0.814  0.189  0.799- 414 2.06 117 2.44 150 2.52  66 2.60
 335  0.805  0.698  0.307- 415 2.06 173 2.45 191 2.56  67 2.57
 336  0.804  0.696  0.809- 416 2.06  36 2.39  14 2.48 119 2.52
 337  0.192  0.189  0.185- 409 2.06 177 2.44 145 2.48 153 2.49
 338  0.193  0.183  0.700- 410 2.06 122 2.46  28 2.50  18 2.52
 339  0.197  0.687  0.195- 411 2.05   9 2.45 123 2.49  51 2.55
 340  0.196  0.697  0.692- 412 2.06  20 2.40 148 2.43 124 2.44
 341  0.689  0.186  0.198- 413 2.05  62 2.47 101 2.48  53 2.52
 342  0.693  0.192  0.684- 414 2.06  61 2.48  16 2.49  38 2.58
 343  0.689  0.702  0.191- 415 2.06 173 2.45  39 2.60 127 2.62
 344  0.695  0.701  0.689- 416 2.06 160 2.39  14 2.43 184 2.55
 345  0.190  0.300  0.305- 409 2.05 169 2.39 114 2.45  17 3.04
 346  0.192  0.302  0.814- 410 2.06 186 2.51 108 2.51  50 2.58
 347  0.195  0.814  0.301- 411 2.06  59 2.40 171 2.45  19 2.50
 348  0.188  0.820  0.802- 412 2.06 188 2.42  20 2.42  98 2.49
 349  0.691  0.304  0.313- 413 2.06  29 2.45 189 2.52 129 2.55
 350  0.698  0.305  0.804- 414 2.06 117 2.44 152 2.46 158 2.52
 351  0.690  0.817  0.308- 415 2.06 109 2.47 168 2.50 131 2.56
 352  0.692  0.815  0.810- 416 2.06 160 2.41 176 2.49  64 2.59
 353  0.002  0.001  0.999-  44 2.34 137 2.37  93 2.37  85 2.38  78 2.38   1 2.39
 354  0.993  0.000  0.503-  86 2.32  43 2.35  77 2.36  94 2.38   2 2.39 138 2.40
 355  0.998  0.497  0.002-  42 2.31   3 2.35  95 2.36  87 2.36  80 2.40 139 2.40
 356  0.994  0.504  0.503-  96 2.33   4 2.33  88 2.36  79 2.36 140 2.37  41 2.38
 357  0.506  0.001  1.000-  89 2.31  48 2.35 141 2.36  81 2.36  74 2.37   5 2.38
 358  0.501  0.002  0.500-  73 2.37   6 2.37 142 2.37  90 2.38  47 2.38  82 2.40
 359  0.498  0.507  0.001-  46 2.32   7 2.35  83 2.35  91 2.38  76 2.39 143 2.39
 360  0.498  0.498  0.502-  75 2.34  45 2.37   8 2.37  92 2.38 144 2.39  84 2.40
 361  0.999  0.248  0.250-  49 2.33 133 2.35  65 2.38 153 2.39  33 2.40  17 2.40
 362  0.004  0.253  0.750- 134 2.34  34 2.36 154 2.40  18 2.41  66 2.41  50 2.41
 363  0.001  0.748  0.252- 155 2.34  35 2.37  19 2.38  51 2.39  67 2.39 135 2.41
 364  0.002  0.757  0.750-  36 2.29  20 2.30  52 2.33  68 2.38 136 2.39 156 2.41
 365  0.502  0.249  0.252-  21 2.35  37 2.35 129 2.39  53 2.40  69 2.40 157 2.41
 366  0.500  0.252  0.755- 130 2.34  54 2.36 158 2.38  22 2.38  38 2.39  70 2.41
 367  0.497  0.749  0.250-  55 2.35  71 2.38 131 2.39  23 2.41  39 2.41 159 2.41
 368  0.500  0.759  0.748- 160 2.29 132 2.32  24 2.34  72 2.39  56 2.39  40 2.40
 369  0.246  0.999  0.247- 105 2.30  97 2.31 171 2.33 145 2.36  27 2.39  11 2.40
 370  0.252  0.002  0.750- 172 2.35 106 2.37  98 2.37 146 2.39  12 2.40  28 2.40
 371  0.248  0.500  0.255- 169 2.32   9 2.32 147 2.40  25 2.41  99 2.41 107 2.42
 372  0.248  0.500  0.751- 148 2.35 108 2.38 100 2.38  26 2.38 170 2.40  10 2.40
 373  0.750  0.998  0.245- 175 2.34  15 2.34  31 2.35 149 2.39 109 2.39 101 2.39
 374  0.750  0.003  0.748- 102 2.33 110 2.35 150 2.38  16 2.38 176 2.39  32 2.42
 375  0.749  0.499  0.249-  29 2.32 173 2.34 103 2.39 111 2.40 151 2.40  13 2.41
 376  0.748  0.503  0.752-  14 2.36  30 2.36 152 2.37 112 2.38 104 2.39 174 2.39
 377  0.252  0.250  0.002- 113 2.35 121 2.36 177 2.37 186 2.39 161 2.40  58 2.40
 378  0.255  0.246  0.501- 185 2.33 122 2.36 114 2.36 178 2.36 162 2.40  57 2.40
 379  0.249  0.747  0.002- 123 2.35  60 2.35 188 2.36 163 2.36 179 2.37 115 2.41
 380  0.249  0.754  0.503- 187 2.35 116 2.36  59 2.36 164 2.37 124 2.37 180 2.39
 381  0.752  0.248  0.003- 181 2.31 117 2.35 165 2.35  62 2.36 125 2.38 190 2.38
 382  0.751  0.256  0.504- 182 2.32 126 2.35 166 2.36 118 2.38  61 2.40 189 2.40
 383  0.751  0.751  1.000- 192 2.36 183 2.36 119 2.39 167 2.40 127 2.40  64 2.42
 384  0.750  0.748  0.497- 120 2.34 128 2.37 191 2.38 184 2.38 168 2.40  63 2.42
 385  0.005  0.988  0.258- 227 2.05 247 2.06 237 2.06 249 2.06  31 2.97 133 3.01  85 3.02
 386  0.000  0.995  0.742- 248 2.05 228 2.06 250 2.06 238 2.06  78 2.98 134 2.98
 387  0.999  0.508  0.243- 251 2.06 245 2.06 239 2.06 225 2.06  49 2.99   4 3.00
 388  0.009  0.510  0.761- 252 2.05 240 2.06 226 2.06 246 2.06  88 2.99  34 3.00  30 3.04
 389  0.491  0.999  0.246- 243 2.05 233 2.06 253 2.06 231 2.07  15 2.97  47 2.99
 390  0.500  0.997  0.757- 232 2.06 244 2.06 254 2.06 234 2.06 130 2.97  82 3.05
 391  0.499  0.500  0.260- 241 2.06 229 2.06 255 2.06 235 2.06   7 3.02
 392  0.493  0.507  0.744- 256 2.05 236 2.05 242 2.06 230 2.06  83 2.96  54 2.98 104 3.03
 393  0.258  0.004  0.009- 267 2.05 258 2.05 276 2.06 281 2.06  93 2.98 172 2.99 163 3.02
 394  0.242  0.007  0.492- 275 2.05 282 2.06 257 2.06 268 2.06  73 2.98 187 2.99 106 3.03
 395  0.260  0.492  0.003- 265 2.05 260 2.06 283 2.06 274 2.06 179 2.98   3 3.00
 396  0.242  0.497  0.500- 273 2.05 266 2.06 284 2.06 259 2.06   8 3.00 164 3.05
 397  0.747  0.009  0.005- 285 2.05 271 2.06 280 2.06 262 2.06 102 2.98 192 3.02   1 3.06
 398  0.754  0.009  0.494- 261 2.05 286 2.06 279 2.06 272 2.06 110 2.98 120 3.02 142 3.04
 399  0.740  0.493  0.009- 278 2.05 287 2.06 264 2.06 269 2.06  87 2.98 183 3.00 112 3.03
 400  0.756  0.493  0.494- 270 2.06 263 2.06 288 2.06 277 2.06 128 2.99  45 3.01 174 3.05
 401  0.991  0.258  0.001- 298 2.06 310 2.06 293 2.06 313 2.06  44 2.96 121 3.03
 402  0.011  0.259  0.503- 297 2.05 309 2.06 314 2.06 294 2.06 126 2.97  77 3.00
 403  0.995  0.744  0.995- 312 2.04 295 2.06 315 2.06 300 2.07 155 2.98  60 3.02 137 3.05
 404  0.991  0.741  0.509- 296 2.05 299 2.05 311 2.06 316 2.06  35 3.00 180 3.00  94 3.01
 405  0.510  0.259  0.992- 302 2.05 306 2.05 289 2.06 317 2.06 113 2.97 141 3.02  37 3.02
 406  0.492  0.257  0.510- 290 2.05 305 2.06 301 2.06 318 2.06 166 3.01  90 3.02  21 3.02
 407  0.507  0.744  0.991- 308 2.04 291 2.06 304 2.06 319 2.07  74 2.99  71 3.03 115 3.05
 408  0.511  0.743  0.505- 320 2.04 307 2.06 303 2.06 292 2.08  55 2.98   6 3.02 116 3.02  24 3.08

 409  0.249  0.248  0.244- 345 2.05 337 2.06 329 2.06 321 2.06 169 2.89 145 2.93 114 2.97
 410  0.251  0.240  0.760- 330 2.06 322 2.06 346 2.06 338 2.06 122 3.01 108 3.04
 411  0.252  0.750  0.250- 339 2.05 331 2.06 347 2.06 323 2.06 171 2.92   9 2.92  59 3.01 123 3.02

 412  0.250  0.759  0.751- 324 2.05 348 2.06 332 2.06 340 2.06  20 2.89 132 2.92 188 3.00 124 3.00
                           148 3.01
 413  0.748  0.240  0.260- 333 2.05 341 2.05 349 2.06 325 2.07  29 2.98  62 2.99
 414  0.754  0.247  0.742- 326 2.06 342 2.06 350 2.06 334 2.06 117 2.99 152 3.03
 415  0.748  0.759  0.250- 327 2.06 343 2.06 351 2.06 335 2.06 173 2.99
 416  0.751  0.759  0.750- 328 2.05 352 2.06 336 2.06 344 2.06  36 2.86 160 2.87  14 3.01
 

IMPORTANT INFORMATION: All symmetrisations will be switched off!
NOSYMM: (Re-)initialisation of all symmetry stuff for point group C_1.

 
 
 KPOINTS: Title                                   

Automatic generation of k-mesh.
Space group operators:
 irot       det(A)        alpha          n_x          n_y          n_z        tau_x        tau_y        tau_z
    1     1.000000     0.000000     1.000000     0.000000     0.000000     0.000000     0.000000     0.000000
 
 Subroutine IBZKPT returns following result:
 ===========================================
 
 Found      1 irreducible k-points:
 
 Following reciprocal coordinates:
            Coordinates               Weight
  0.000000  0.000000  0.000000      1.000000
 
 Following cartesian coordinates:
            Coordinates               Weight
  0.000000  0.000000  0.000000      1.000000
 


--------------------------------------------------------------------------------------------------------




 Dimension of arrays:
   k-points           NKPTS =      1   k-points in BZ     NKDIM =      1   number of bands    NBANDS=   1008
   number of dos      NEDOS =   3001   number of ions     NIONS =    416
   non local maximal  LDIM  =      5   non local SUM 2l+1 LMDIM =     13
   total plane-waves  NPLWV = 592704
   max r-space proj   IRMAX =   1611   max aug-charges    IRDMAX=  32347
   dimension x,y,z NGX =    84 NGY =   84 NGZ =   84
   dimension x,y,z NGXF=   168 NGYF=  168 NGZF=  168
   support grid    NGXF=   336 NGYF=  336 NGZF=  336
   ions per type =             192  32 160  32
   NGX,Y,Z   is equivalent  to a cutoff of   6.83,  6.83,  6.83 a.u.
   NGXF,Y,Z  is equivalent  to a cutoff of  13.67, 13.67, 13.67 a.u.

 SYSTEM =  LTO                                     
 POSCAR =  Li192 P32 S160 I32                      

 Startparameter for this run:
   NWRITE =      2    write-flag & timer
   PREC   = normal    normal or accurate (medium, high low for compatibility)
   ISTART =      0    job   : 0-new  1-cont  2-samecut
   ICHARG =      2    charge: 1-file 2-atom 10-const
   ISPIN  =      1    spin polarized calculation?
   LNONCOLLINEAR =      F non collinear calculations
   LSORBIT =      F    spin-orbit coupling
   INIWAV =      1    electr: 0-lowe 1-rand  2-diag
   LASPH  =      T    aspherical Exc in radial PAW
   METAGGA=      F    non-selfconsistent MetaGGA calc.

 Electronic Relaxation 1
   ENCUT  =  280.0 eV  20.58 Ry    4.54 a.u.  27.88 27.88 27.88*2*pi/ulx,y,z
   ENINI  =  280.0     initial cutoff
   ENAUG  =  370.1 eV  augmentation charge cutoff
   NELM   =     60;   NELMIN=  4; NELMDL=  0     # of ELM steps 
   EDIFF  = 0.1E-03   stopping-criterion for ELM
   LREAL  =      T    real-space projection
   NLSPLINE    = F    spline interpolate recip. space projectors
   LCOMPAT=      F    compatible to vasp.4.4
   GGA_COMPAT  = T    GGA compatible to vasp.4.4-vasp.4.6
   LMAXPAW     = -100 max onsite density
   LMAXMIX     =    4 max onsite mixed and CHGCAR
   VOSKOWN=      0    Vosko Wilk Nusair interpolation
   ROPT   =   -0.00010  -0.00010  -0.00010  -0.00010
 Ionic relaxation
   EDIFFG = -.5E-01   stopping-criterion for IOM
   NSW    =   1000    number of steps for IOM
   NBLOCK =      1;   KBLOCK =   1000    inner block; outer block 
   IBRION =      2    ionic relax: 0-MD 1-quasi-New 2-CG
   NFREE  =      1    steps in history (QN), initial steepest desc. (CG)
   ISIF   =      2    stress and relaxation
   IWAVPR =     11    prediction:  0-non 1-charg 2-wave 3-comb
   ISYM   =      0    0-nonsym 1-usesym 2-fastsym
   LCORR  =      T    Harris-Foulkes like correction to forces

   POTIM  = 0.5000    time-step for ionic-motion
   TEIN   =    0.0    initial temperature
   TEBEG  =    0.0;   TEEND  =   0.0 temperature during run
   SMASS  =  -3.00    Nose mass-parameter (am)
   estimated Nose-frequenzy (Omega)   =  0.10E-29 period in steps =****** mass=  -0.954E-26a.u.
   SCALEE = 1.0000    scale energy and forces
   NPACO  =    256;   APACO  = 16.0  distance and # of slots for P.C.
   PSTRESS=    0.0 pullay stress

  Mass of Ions in am
   POMASS =   7.01126.90 32.07 30.97
  Ionic Valenz
   ZVAL   =   1.00  7.00  6.00  5.00
  Atomic Wigner-Seitz radii
   RWIGS  =  -1.00 -1.00 -1.00 -1.00
  virtual crystal weights 
   VCA    =   1.00  1.00  1.00  1.00
   NELECT =    1536.0000    total number of electrons
   NUPDOWN=      -1.0000    fix difference up-down

 DOS related values:
   EMIN   =  10.00;   EMAX   =-10.00  energy-range for DOS
   EFERMI =   0.00
   ISMEAR =     0;   SIGMA  =   0.01  broadening in eV -4-tet -1-fermi 0-gaus

 Electronic relaxation 2 (details)
   IALGO  =     68    algorithm
   LDIAG  =      T    sub-space diagonalisation (order eigenvalues)
   LSUBROT=      F    optimize rotation matrix (better conditioning)
   TURBO    =      0    0=normal 1=particle mesh
   IRESTART =      0    0=no restart 2=restart with 2 vectors
   NREBOOT  =      0    no. of reboots
   NMIN     =      0    reboot dimension
   EREF     =   0.00    reference energy to select bands
   IMIX   =      4    mixing-type and parameters
     AMIX     =   0.40;   BMIX     =  1.00
     AMIX_MAG =   1.60;   BMIX_MAG =  1.00
     AMIN     =   0.10
     WC   =   100.;   INIMIX=   1;  MIXPRE=   1;  MAXMIX=  40

 Intra band minimization:
   WEIMIN = 0.0010     energy-eigenvalue tresh-hold
   EBREAK =  0.25E-07  absolut break condition
   DEPER  =   0.30     relativ break condition  

   TIME   =   0.40     timestep for ELM

  volume/ion in A,a.u.               =      20.51       138.39
  Fermi-wavevector in a.u.,A,eV,Ry     =   0.924428  1.746916 11.627092  0.854567
  Thomas-Fermi vector in A             =   2.050173
 
 Write flags
   LWAVE        =      F    write WAVECAR
   LDOWNSAMPLE  =      F    k-point downsampling of WAVECAR
   LCHARG       =      F    write CHGCAR
   LVTOT        =      F    write LOCPOT, total local potential
   LVHAR        =      F    write LOCPOT, Hartree potential only
   LELF         =      F    write electronic localiz. function (ELF)
   LORBIT       =     11    0 simple, 1 ext, 2 COOP (PROOUT), +10 PAW based schemes


 Dipole corrections
   LMONO  =      F    monopole corrections only (constant potential shift)
   LDIPOL =      F    correct potential (dipole corrections)
   IDIPOL =      0    1-x, 2-y, 3-z, 4-all directions 
   EPSILON=  1.0000000 bulk dielectric constant

 Exchange correlation treatment:
   GGA     =    PS    GGA type
   LEXCH   =    14    internal setting for exchange type
   VOSKOWN=      0    Vosko Wilk Nusair interpolation
   LHFCALC =     F    Hartree Fock is set to
   LHFONE  =     F    Hartree Fock one center treatment
   AEXX    =    0.0000 exact exchange contribution

 Linear response parameters
   LEPSILON=     F    determine dielectric tensor
   LRPA    =     F    only Hartree local field effects (RPA)
   LNABLA  =     F    use nabla operator in PAW spheres
   LVEL    =     F    velocity operator in full k-point grid
   LINTERFAST=   F  fast interpolation
   KINTER  =     0    interpolate to denser k-point grid
   CSHIFT  =0.1000    complex shift for real part using Kramers Kronig
   OMEGAMAX=  -1.0    maximum frequency
   DEG_THRESHOLD= 0.2000000E-02 threshold for treating states as degnerate
   RTIME   =   -0.100 relaxation time in fs
  (WPLASMAI=    0.000 imaginary part of plasma frequency in eV, 0.658/RTIME)
   DFIELD  = 0.0000000 0.0000000 0.0000000 field for delta impulse in time
 
 Orbital magnetization related:
   ORBITALMAG=     F  switch on orbital magnetization
   LCHIMAG   =     F  perturbation theory with respect to B field
   DQ        =  0.001000  dq finite difference perturbation B field
   LLRAUG    =     F  two centre corrections for induced B field



--------------------------------------------------------------------------------------------------------


 conjugate gradient relaxation of ions
 charge density and potential will be updated during run
 non-spin polarized calculation
 RMM-DIIS sequential band-by-band and
  variant of blocked Davidson during initial phase
 perform sub-space diagonalisation
    before iterative eigenvector-optimisation
 modified Broyden-mixing scheme, WC =      100.0
 initial mixing is a Kerker type mixing with AMIX =  0.4000 and BMIX =      1.0000
 Hartree-type preconditioning will be used
 using additional bands          240
 real space projection scheme for non local part
 use partial core corrections
 calculate Harris-corrections to forces 
   (improved forces if not selfconsistent)
 use gradient corrections 
 use of overlap-Matrix (Vanderbilt PP)
 Gauss-broadening in eV      SIGMA  =   0.01


--------------------------------------------------------------------------------------------------------


  energy-cutoff  :      280.00
  volume of cell :     8530.93
      direct lattice vectors                 reciprocal lattice vectors
    20.433000000  0.000000000  0.000000000     0.048940439  0.000000000  0.000000000
     0.000000000 20.433000000  0.000000000     0.000000000  0.048940439  0.000000000
     0.000000000  0.000000000 20.433000000     0.000000000  0.000000000  0.048940439

  length of vectors
    20.433000000 20.433000000 20.433000000     0.048940439  0.048940439  0.048940439


 
 k-points in units of 2pi/SCALE and weight: Title                                   
   0.00000000  0.00000000  0.00000000       1.000
 
 k-points in reciprocal lattice and weights: Title                                   
   0.00000000  0.00000000  0.00000000       1.000
 
 position of ions in fractional coordinates (direct lattice) 
   0.89018460  0.97695173  0.97524877
   0.91126545  0.00515282  0.41928772
   0.11323252  0.49309936  0.00361838
   0.99231743  0.50420670  0.38903783
   0.41913153  0.99504114  0.92168089
   0.48578210  0.88772588  0.48552435
   0.48358839  0.51916182  0.11457103
   0.38539947  0.52011804  0.51519940
   0.23539507  0.61065836  0.27866013
   0.33389532  0.49702973  0.83172215
   0.33360696  0.99739768  0.32601782
   0.33681107  0.08222204  0.75794003
   0.66788168  0.49901343  0.33555447
   0.72470838  0.61494137  0.76548432
   0.63562916  0.98845373  0.23682094
   0.66958313  0.08636296  0.74158625
   0.05785901  0.24899243  0.35127885
   0.09147257  0.24632924  0.67066645
   0.08303951  0.83105292  0.25434695
   0.11129259  0.77214610  0.72533592
   0.51319483  0.23620127  0.36522081
   0.42041633  0.24403640  0.67001700
   0.41547795  0.83483216  0.24632640
   0.47835995  0.70674977  0.64817161
   0.33448359  0.49877809  0.33490327
   0.17414772  0.49540674  0.84133413
   0.16526281  0.00222813  0.16316679
   0.16287285  0.07796467  0.75678143
   0.74957211  0.38499792  0.24555864
   0.86101295  0.51642046  0.77327244
   0.86343877  0.00921975  0.23387488
   0.83520639  0.92052208  0.75408069
   0.92537259  0.24172160  0.15826370
   0.02289555  0.36569374  0.73578301
   0.01644699  0.72548293  0.36490196
   0.89051365  0.75021194  0.75189551
   0.52072120  0.26732561  0.13951270
   0.58472987  0.25612161  0.67380189
   0.58256219  0.66878267  0.25241587
   0.50451894  0.83299139  0.83939801
   0.90794178  0.58214655  0.50394346
   0.00326964  0.58244063  0.92809805
   0.91571579  0.00164330  0.58739266
   0.98310972  0.11365077  0.01063765
   0.61134805  0.47522236  0.51361289
   0.57253630  0.42109102  0.00813761
   0.52559320  0.01699262  0.38680574
   0.58095957  0.00682394  0.91311512
   0.00552999  0.36159037  0.24304261
   0.08188422  0.24602816  0.83803022
   0.08376894  0.66649887  0.24347552
   0.01383219  0.68130539  0.83351800
   0.57944251  0.16184446  0.24787407
   0.47485032  0.36361295  0.76623663
   0.48807548  0.76869501  0.36341694
   0.51323937  0.65277390  0.79520645
   0.16539908  0.17063157  0.49221673
   0.24715043  0.16205741  0.92460033
   0.26254386  0.78482076  0.39249464
   0.13796437  0.75820192  0.02851797
   0.75239440  0.16754281  0.58141710
   0.73255357  0.26391921  0.11594369
   0.82543045  0.74387678  0.58833540
   0.67163546  0.74441557  0.91256310
   0.89775759  0.25666741  0.30744231
   0.91849061  0.25472519  0.83098263
   0.91256378  0.67154428  0.24726182
   0.99373936  0.83371649  0.66177110
   0.41564508  0.32965742  0.25027298
   0.41198884  0.24674988  0.83250389
   0.48183067  0.72963995  0.13653549
   0.50219635  0.84584626  0.66985111
   0.38729000  0.99771722  0.47829520
   0.52459013  0.88709257  0.01412052
   0.50610761  0.57929039  0.58262117
   0.58691566  0.58263387  0.00268677
   0.98741619  0.11488364  0.51542338
   0.01758836  0.02032034  0.88510763
   0.07730908  0.58453902  0.50134746
   0.99048446  0.57979613  0.08419381
   0.58707866  0.00705467  0.08158820
   0.47659724  0.02445714  0.61229981
   0.51052707  0.51420826  0.88754539
   0.50790191  0.58133090  0.42008826
   0.98112329  0.00856875  0.11324880
   0.07264605  0.00107833  0.42110293
   0.88451992  0.48393465  0.98797890
   0.98319413  0.51804318  0.61718193
   0.42622457  0.99528319  0.08030603
   0.52769191  0.11461680  0.49142726
   0.41775568  0.59030798  0.99537197
   0.48930846  0.41912779  0.41734819
   0.11511387  0.02550059  0.99146037
   0.97571416  0.88600750  0.48923269
   0.00026820  0.41485469  0.08278584
   0.07843817  0.42687101  0.50890073
   0.32647158  0.01419302  0.16913409
   0.16618042  0.92373181  0.74233715
   0.16486370  0.49344091  0.33887671
   0.32983541  0.50421102  0.66821540
   0.75193147  0.08626901  0.16793946
   0.74198289  0.02125541  0.86005944
   0.83444396  0.49930249  0.32857886
   0.63751231  0.48291556  0.71917656
   0.17119706  0.98171210  0.32896419
   0.26326768  0.02841841  0.63797413
   0.33022738  0.49984754  0.17039750
   0.23392449  0.38549952  0.73452578
   0.75295815  0.91759378  0.32989203
   0.73424240  0.98216107  0.63580314
   0.66062207  0.49690541  0.17171154
   0.71510693  0.50943339  0.86405259
   0.36672632  0.23960749  0.01255391
   0.26766235  0.26078144  0.38711818
   0.36078144  0.76352770  0.96612338
   0.36378254  0.75582518  0.49312614
   0.75540171  0.24217006  0.88841639
   0.75340454  0.33899223  0.58502471
   0.83409302  0.74676367  0.91706188
   0.76536184  0.86160924  0.48667718
   0.13877454  0.26747972  0.01172587
   0.26455943  0.22544244  0.61416740
   0.27835258  0.71395030  0.10855011
   0.27902088  0.72524388  0.61122828
   0.66933757  0.16568593  0.99868070
   0.86573570  0.25412484  0.49748662
   0.66333853  0.75475492  0.07691663
   0.73083100  0.63602167  0.47715841
   0.58199023  0.33408619  0.26043105
   0.51495489  0.14020051  0.77643115
   0.58165096  0.82943768  0.24520016
   0.39021134  0.76587477  0.77767232
   0.01530249  0.13523835  0.26645167
   0.99140620  0.14046091  0.72926667
   0.91508579  0.82912809  0.25910022
   0.99953786  0.66516793  0.67760508
   0.02467580  0.88900451  0.01591539
   0.08371344  0.99817182  0.57729433
   0.99981073  0.41864586  0.91355898
   0.91975660  0.41501281  0.49914769
   0.48815690  0.11411149  0.01421388
   0.61176384  0.97506234  0.52273031
   0.41980593  0.41984636  0.99565413
   0.49303108  0.41479343  0.58430294
   0.22198678  0.10958094  0.27118538
   0.33259354  0.91717560  0.74683162
   0.16551322  0.49989461  0.17167522
   0.23497012  0.61291320  0.76668085
   0.74984383  0.91604424  0.16191371
   0.83535886  0.08200970  0.74219025
   0.83101983  0.49843876  0.16553050
   0.77439336  0.39117508  0.76935283
   0.08636682  0.24785028  0.17215156
   0.92102306  0.25971320  0.66681617
   0.00646904  0.76295741  0.13902918
   0.00176381  0.83729498  0.83648131
   0.41734850  0.16685652  0.24599913
   0.58636799  0.26114049  0.83248256
   0.41549418  0.66439095  0.26119054
   0.61094707  0.76597131  0.73962583
   0.25485814  0.33562792  0.08280533
   0.33012737  0.33635938  0.50584620
   0.24386886  0.85888245  0.03087775
   0.23038230  0.64347207  0.47421270
   0.83349028  0.16665019  0.00946697
   0.63765158  0.27403779  0.51528589
   0.83004120  0.75813488  0.08624562
   0.67049953  0.75463096  0.41137959
   0.25656702  0.38727752  0.26415433
   0.16824785  0.50721328  0.66580708
   0.24112736  0.88875561  0.21954143
   0.25951947  0.98714852  0.86401483
   0.75139340  0.61276156  0.24132200
   0.77717575  0.51823846  0.64000452
   0.74422596  0.07247804  0.33181443
   0.66600597  0.92166145  0.75590043
   0.25570572  0.16915646  0.08574772
   0.33332795  0.16135751  0.49520285
   0.23345321  0.63403307  0.98122507
   0.13527979  0.75884112  0.53048913
   0.67000638  0.32484243  0.99619532
   0.73999147  0.17411644  0.42560718
   0.76259645  0.63784999  0.02243583
   0.66770391  0.75448187  0.57957979
   0.17626108  0.32826965  0.50870500
   0.25686821  0.32785766  0.91532722
   0.23008190  0.86557783  0.52560199
   0.21316304  0.74786310  0.89277598
   0.75405789  0.33256168  0.41521724
   0.82982981  0.33407594  0.00043284
   0.83564753  0.74434526  0.41872134
   0.76156493  0.86380495  0.97946450
   0.12137697  0.12072296  0.36799676
   0.12112011  0.11894067  0.88196557
   0.12387308  0.62501767  0.37397630
   0.13280213  0.62347488  0.88150185
   0.61689004  0.12580131  0.37732976
   0.63093371  0.12930647  0.86902660
   0.63032654  0.62626939  0.37536537
   0.62580246  0.61908916  0.87164435
   0.36591158  0.37072304  0.37413226
   0.37942482  0.37430333  0.87273911
   0.37997779  0.87139004  0.38472786
   0.37370760  0.87388768  0.87412324
   0.87862895  0.37585230  0.37368852
   0.87082978  0.38040334  0.87666059
   0.87354310  0.87398216  0.38302244
   0.87357289  0.87577909  0.87873943
   0.38469512  0.12853154  0.11622459
   0.37183690  0.12150642  0.62594580
   0.38207655  0.62353669  0.12858837
   0.37476173  0.62375059  0.61552769
   0.88320870  0.11472944  0.12778153
   0.88312526  0.13200585  0.62037469
   0.86587624  0.62705156  0.12460483
   0.87508924  0.62034255  0.63301666
   0.12431317  0.37318180  0.12443009
   0.12669231  0.37670324  0.63321577
   0.12525006  0.86932924  0.12284080
   0.12325654  0.87126010  0.62100904
   0.62931643  0.36686343  0.12991894
   0.62459625  0.37949370  0.62199518
   0.62195561  0.88010064  0.12411504
   0.62939112  0.87998647  0.62702469
   0.05476259  0.44981150  0.30336657
   0.06592512  0.44703014  0.81509351
   0.06119373  0.93193766  0.31863565
   0.05828866  0.94069824  0.80376860
   0.55761534  0.44098806  0.31774015
   0.55371668  0.44689227  0.79870147
   0.54892843  0.93793985  0.30115715
   0.55963814  0.93871007  0.81370215
   0.44008859  0.05885736  0.30910574
   0.44291545  0.05460644  0.81689781
   0.44188718  0.55804880  0.31934665
   0.43557733  0.56094923  0.80586925
   0.94529605  0.04926647  0.31114642
   0.94306029  0.05612263  0.79918229
   0.93893331  0.56433296  0.30067502
   0.95540251  0.57323039  0.81766902
   0.44103148  0.44360276  0.19988099
   0.43594897  0.44670227  0.68678888
   0.42805493  0.94484335  0.18983912
   0.44110548  0.94404846  0.69510066
   0.94258862  0.44643792  0.18589557
   0.94347842  0.45316948  0.70932407
   0.94793911  0.93046548  0.19841408
   0.93910725  0.93797581  0.68667905
   0.05910654  0.04811361  0.19657075
   0.06036686  0.05263859  0.68533342
   0.05839151  0.56423948  0.18409778
   0.06419271  0.56331137  0.69594318
   0.55055154  0.05721448  0.18808111
   0.55567644  0.05755511  0.69867758
   0.55714586  0.55748561  0.20076496
   0.55242931  0.56955919  0.69306446
   0.29929786  0.06229102  0.42984092
   0.31378490  0.05875990  0.94569441
   0.29854908  0.55315556  0.43860137
   0.31337382  0.55270147  0.94286667
   0.80850472  0.07008378  0.43674378
   0.80850825  0.06463800  0.94832439
   0.81144395  0.55434895  0.43637982
   0.79481559  0.55076077  0.94679075
   0.31917307  0.43636166  0.06212728
   0.30147413  0.44336107  0.56073648
   0.31574128  0.94662257  0.06784827
   0.30341357  0.95343149  0.55200384
   0.80289009  0.43616875  0.06389830
   0.81501325  0.43841322  0.55530971
   0.80527917  0.94543141  0.05773675
   0.81221693  0.94979279  0.55144886
   0.18391895  0.43441392  0.44603493
   0.20008984  0.43388293  0.94634552
   0.18335469  0.94319680  0.44249308
   0.19746948  0.94352442  0.95645151
   0.69612963  0.43578337  0.43768261
   0.68082781  0.43583092  0.95188144
   0.69587921  0.94795406  0.43788842
   0.68880531  0.95382200  0.94427466
   0.19957661  0.06493206  0.06434062
   0.18647030  0.06622440  0.55206837
   0.20112869  0.55059513  0.06073174
   0.18607174  0.56069815  0.55471825
   0.69101618  0.06684841  0.06527191
   0.69257897  0.06145412  0.55374157
   0.68674458  0.55452813  0.06792547
   0.69801034  0.55010961  0.55332253
   0.45187865  0.31470054  0.05298581
   0.43127312  0.31121398  0.56840722
   0.44583308  0.80179687  0.04675895
   0.44958469  0.80068500  0.56346067
   0.93413994  0.31589859  0.06004571
   0.94857748  0.31415271  0.56064289
   0.93892220  0.80761100  0.05043916
   0.93174672  0.80035770  0.56349258
   0.07014525  0.31958536  0.44928712
   0.05182037  0.31235021  0.94134769
   0.05129145  0.79923184  0.45313498
   0.06045823  0.80028882  0.94244790
   0.54723190  0.31537062  0.44964380
   0.56598356  0.31926504  0.93616563
   0.56547404  0.80643253  0.44921984
   0.56763887  0.80433569  0.93861739
   0.44186770  0.19221082  0.45054368
   0.45141237  0.19804865  0.93699276
   0.45071400  0.68937336  0.44550017
   0.45023491  0.68785678  0.93002921
   0.95726115  0.20331464  0.43892267
   0.93332112  0.19800851  0.94415777
   0.93739199  0.68357536  0.44564411
   0.93970387  0.68731059  0.93402278
   0.04958558  0.19963432  0.05900308
   0.06495066  0.19642110  0.56044552
   0.04862547  0.68621038  0.05734990
   0.05027229  0.68370498  0.56735611
   0.56537370  0.19875730  0.05172357
   0.55501439  0.20218122  0.56660799
   0.56204554  0.68845752  0.05525777
   0.56668768  0.68563931  0.56422541
   0.30767153  0.30958667  0.18942397
   0.30911465  0.29641971  0.70095754
   0.31200510  0.80061902  0.18650350
   0.31429167  0.80878198  0.69304743
   0.81229112  0.29323961  0.20297758
   0.81064185  0.30957777  0.68745306
   0.80946312  0.81569784  0.19336212
   0.81142454  0.81519461  0.69357963
   0.30786388  0.18793911  0.30003604
   0.30786210  0.18280569  0.82014254
   0.30720630  0.69803694  0.31657931
   0.29875696  0.70161401  0.81818669
   0.80156527  0.18181922  0.32067440
   0.81394272  0.18914307  0.79903451
   0.80476625  0.69774583  0.30665980
   0.80364494  0.69602417  0.80875836
   0.19224420  0.18913939  0.18479109
   0.19272930  0.18253146  0.70045136
   0.19659543  0.68679762  0.19452251
   0.19574373  0.69719407  0.69212772
   0.68934085  0.18597382  0.19762586
   0.69282693  0.19162287  0.68423690
   0.68910320  0.70177967  0.19084230
   0.69462311  0.70138919  0.68947008
   0.18988320  0.30018784  0.30504876
   0.19236943  0.30190891  0.81425238
   0.19471622  0.81442915  0.30109318
   0.18818858  0.81983928  0.80199666
   0.69128726  0.30445644  0.31265390
   0.69835779  0.30456025  0.80376155
   0.68952052  0.81694669  0.30776105
   0.69204426  0.81529632  0.80970300
   0.00189124  0.00132299  0.99903514
   0.99339440  0.00013021  0.50250261
   0.99847162  0.49662547  0.00156109
   0.99447330  0.50388488  0.50311778
   0.50553593  0.00070527  0.99976483
   0.50097728  0.00160496  0.49983182
   0.49816675  0.50650376  0.00142694
   0.49843935  0.49809652  0.50227654
   0.99864384  0.24783012  0.24961843
   0.00390388  0.25252364  0.74953509
   0.00079212  0.74836791  0.25247245
   0.00213408  0.75746715  0.74953175
   0.50154968  0.24946175  0.25163868
   0.50021642  0.25159213  0.75463399
   0.49653637  0.74943490  0.25032832
   0.49959663  0.75900037  0.74810672
   0.24649431  0.99930134  0.24739360
   0.25196650  0.00156455  0.75012434
   0.24784855  0.50013281  0.25515767
   0.24824977  0.49964583  0.75139466
   0.74953861  0.99801782  0.24503045
   0.75031495  0.00255894  0.74765152
   0.74852809  0.49857817  0.24927606
   0.74804270  0.50263279  0.75230256
   0.25245042  0.25012388  0.00246913
   0.25492540  0.24625089  0.50118939
   0.24946631  0.74694013  0.00218145
   0.24864133  0.75412283  0.50307408
   0.75185779  0.24752051  0.00324119
   0.75102854  0.25560757  0.50390329
   0.75140592  0.75064955  0.99961824
   0.74997154  0.74843444  0.49742493
   0.00524843  0.98846592  0.25758452
   0.00009475  0.99524477  0.74239746
   0.99897133  0.50785759  0.24255598
   0.00905609  0.50989388  0.76084800
   0.49095922  0.99935725  0.24561501
   0.50022396  0.99699019  0.75713577
   0.49926169  0.49975049  0.26003526
   0.49330813  0.50654130  0.74405997
   0.25809191  0.00426108  0.00917335
   0.24235579  0.00747514  0.49249382
   0.25997159  0.49215046  0.00312958
   0.24152228  0.49662922  0.49984947
   0.74705194  0.00864085  0.00542792
   0.75384688  0.00866046  0.49386062
   0.74045759  0.49308576  0.00899752
   0.75649794  0.49314371  0.49440033
   0.99143028  0.25790909  0.00070032
   0.01084626  0.25933604  0.50323295
   0.99463925  0.74437658  0.99499733
   0.99124154  0.74071786  0.50867503
   0.50954490  0.25855214  0.99240069
   0.49171135  0.25654756  0.50987503
   0.50658323  0.74357171  0.99114091
   0.51066371  0.74346511  0.50547514
   0.24932756  0.24758157  0.24371040
   0.25055084  0.23990085  0.76027471
   0.25229937  0.74965365  0.24968963
   0.24984686  0.75864146  0.75117060
   0.74752742  0.23977492  0.25953742
   0.75373964  0.24708329  0.74224315
   0.74802606  0.75880498  0.24956680
   0.75070910  0.75904109  0.75042134
 
 position of ions in cartesian coordinates  (Angst):
  18.18914203 19.96205461 19.92725806
  18.61988696  0.10528765  8.56730604
   2.31368012 10.07549929  0.07393429
  20.27602211 10.30245552  7.94920997
   8.56411449 20.33167559 18.83270554
   9.92598555 18.13890291  9.92071897
   9.88116167 10.60803352  2.34102988
   7.87486738 10.62757187 10.52706943
   4.80982756 12.47758230  5.69386235
   6.82248315 10.15580840 16.99457859
   6.81659102 20.37982681  6.66152221
   6.88206058  1.68004300 15.48698872
  13.64682638 10.19634147  6.85638455
  14.80796625 12.56509702 15.64114119
  12.98781053 20.19707503  4.83896229
  13.68159215  1.76465426 15.15283188
   1.18223322  5.08766226  7.17768076
   1.86905897  5.03324540 13.70372759
   1.69674634 16.98090424  5.19707130
   2.27404157 15.77726126 14.82078886
  10.48610999  4.82630051  7.46255681
   8.59036692  4.98639580 13.69045738
   8.48946092 17.05812558  5.03318725
   9.77432888 14.44101811 13.24409059
   6.83450329 10.19153274  6.84307854
   3.55836045 10.12264587 17.19098024
   3.37681498  0.04552737  3.33398699
   3.32798089  1.59305208 15.46331502
  15.31600689  7.86666257  5.01749963
  17.59307764 10.55201927 15.80027575
  17.64264439  0.18838725  4.77876552
  17.06577219 18.80902772 15.40813074
  18.90813812  4.93909744  3.23380214
   0.46782467  7.47222024 15.03425431
   0.33606140 14.82379276  7.45604169
  18.19586534 15.32908048 15.36348088
[...]


--------------------------------------------------------------------------------------------------------



  FREE ENERGIE OF THE ION-ELECTRON SYSTEM (eV)
  ---------------------------------------------------
  free  energy   TOTEN  =     -1762.10048447 eV

  energy  without entropy=    -1762.10048447  energy(sigma->0) =    -1762.10048447
 


--------------------------------------------------------------------------------------------------------


    POTLOK:  cpu time    0.3040: real time    0.3051


--------------------------------------------------------------------------------------------------------




--------------------------------------------------------------------------------------------------------


  
 reached required accuracy - stopping structural energy minimisation
     LOOP+:  cpu time   43.4667: real time   44.3937
    4ORBIT:  cpu time    0.0000: real time    0.0000
 


 total charge     
 
# of ion       s       p       d       tot
------------------------------------------
    1        0.082   0.143   0.000   0.224
    2        0.082   0.142   0.000   0.224
    3        0.086   0.148   0.000   0.235
    4        0.088   0.150   0.000   0.238
    5        0.081   0.140   0.000   0.221
    6        0.085   0.149   0.000   0.234
    7        0.087   0.152   0.000   0.238
    8        0.085   0.149   0.000   0.234
    9        0.091   0.162   0.000   0.253
   10        0.080   0.137   0.000   0.217
   11        0.075   0.126   0.000   0.201
   12        0.081   0.139   0.000   0.221
   13        0.079   0.134   0.000   0.213
   14        0.087   0.153   0.000   0.239
   15        0.089   0.155   0.000   0.244
   16        0.082   0.142   0.000   0.224
   17        0.073   0.121   0.000   0.193
   18        0.081   0.138   0.000   0.218
   19        0.082   0.142   0.000   0.224
   20        0.095   0.173   0.000   0.267
   21        0.086   0.150   0.000   0.236
   22        0.080   0.138   0.000   0.218
   23        0.076   0.128   0.000   0.204
   24        0.084   0.147   0.000   0.231
   25        0.082   0.143   0.000   0.225
   26        0.083   0.144   0.000   0.227
   27        0.084   0.145   0.000   0.229
   28        0.080   0.137   0.000   0.216
   29        0.089   0.153   0.000   0.242
   30        0.082   0.140   0.000   0.222
   31        0.087   0.152   0.000   0.239
   32        0.079   0.134   0.000   0.213
   33        0.078   0.131   0.000   0.209
   34        0.084   0.147   0.000   0.231
   35        0.085   0.148   0.000   0.233
   36        0.096   0.170   0.000   0.266
   37        0.086   0.151   0.000   0.236
   38        0.078   0.134   0.000   0.212
   39        0.077   0.129   0.000   0.206
   40        0.084   0.145   0.000   0.229
   41        0.087   0.153   0.000   0.240
   42        0.089   0.157   0.000   0.247
   43        0.088   0.157   0.000   0.245
   44        0.090   0.159   0.000   0.250
   45        0.085   0.149   0.000   0.234
   46        0.085   0.148   0.000   0.233
   47        0.086   0.151   0.000   0.237
   48        0.083   0.144   0.000   0.228
   49        0.088   0.152   0.000   0.240
   50        0.075   0.127   0.000   0.202
   51        0.082   0.141   0.000   0.223
   52        0.085   0.148   0.000   0.233
   53        0.081   0.139   0.000   0.220
   54        0.087   0.154   0.000   0.241
   55        0.086   0.151   0.000   0.237
   56        0.076   0.130   0.000   0.206
   57        0.080   0.138   0.000   0.218
   58        0.079   0.136   0.000   0.215
   59        0.086   0.150   0.000   0.236
   60        0.087   0.153   0.000   0.241
   61        0.081   0.138   0.000   0.219
   62        0.084   0.148   0.000   0.232
   63        0.076   0.129   0.000   0.204
   64        0.077   0.132   0.000   0.209
   65        0.076   0.128   0.000   0.204
   66        0.073   0.122   0.000   0.195
   67        0.081   0.138   0.000   0.219
   68        0.087   0.152   0.000   0.238
   69        0.076   0.128   0.000   0.204
   70        0.083   0.145   0.000   0.228
   71        0.083   0.145   0.000   0.228
   72        0.086   0.149   0.000   0.235
   73        0.087   0.150   0.000   0.237
   74        0.085   0.149   0.000   0.234
   75        0.088   0.153   0.000   0.241
   76        0.084   0.146   0.000   0.230
   77        0.084   0.147   0.000   0.231
   78        0.086   0.152   0.000   0.239
   79        0.084   0.146   0.000   0.230
   80        0.081   0.139   0.000   0.220
   81        0.086   0.151   0.000   0.238
   82        0.082   0.142   0.000   0.224
   83        0.087   0.151   0.000   0.237
   84        0.081   0.139   0.000   0.220
   85        0.085   0.150   0.000   0.236
   86        0.085   0.148   0.000   0.233
   87        0.086   0.150   0.000   0.235
   88        0.086   0.150   0.000   0.236
   89        0.091   0.160   0.000   0.252
   90        0.085   0.150   0.000   0.235
   91        0.083   0.144   0.000   0.228
   92        0.082   0.142   0.000   0.225
   93        0.088   0.155   0.000   0.243
   94        0.083   0.144   0.000   0.226
   95        0.087   0.155   0.000   0.242
   96        0.086   0.150   0.000   0.236
   97        0.089   0.158   0.000   0.247
   98        0.082   0.142   0.000   0.224
   99        0.079   0.134   0.000   0.213
  100        0.081   0.139   0.000   0.220
  101        0.085   0.148   0.000   0.233
  102        0.088   0.154   0.000   0.242
  103        0.080   0.138   0.000   0.218
  104        0.080   0.140   0.000   0.220
  105        0.091   0.158   0.000   0.249
  106        0.084   0.148   0.000   0.233
  107        0.075   0.125   0.000   0.200
  108        0.081   0.139   0.000   0.220
  109        0.082   0.142   0.000   0.225
  110        0.088   0.155   0.000   0.243
  111        0.082   0.143   0.000   0.225
  112        0.085   0.149   0.000   0.234
  113        0.085   0.148   0.000   0.233
  114        0.086   0.151   0.000   0.237
  115        0.078   0.134   0.000   0.212
  116        0.086   0.149   0.000   0.235
  117        0.087   0.149   0.000   0.235
  118        0.086   0.151   0.000   0.238
  119        0.082   0.142   0.000   0.224
  120        0.087   0.153   0.000   0.240
  121        0.083   0.143   0.000   0.226
  122        0.086   0.150   0.000   0.236
  123        0.085   0.151   0.000   0.237
  124        0.086   0.153   0.000   0.240
  125        0.085   0.149   0.000   0.235
  126        0.086   0.147   0.000   0.233
  127        0.078   0.131   0.000   0.208
  128        0.086   0.151   0.000   0.237
  129        0.080   0.135   0.000   0.214
  130        0.089   0.157   0.000   0.246
  131        0.079   0.135   0.000   0.214
  132        0.089   0.159   0.000   0.248
  133        0.086   0.152   0.000   0.238
  134        0.088   0.154   0.000   0.241
  135        0.079   0.136   0.000   0.216
  136        0.083   0.145   0.000   0.228
  137        0.082   0.142   0.000   0.224
  138        0.079   0.134   0.000   0.213
  139        0.084   0.146   0.000   0.230
  140        0.086   0.152   0.000   0.239
  141        0.086   0.152   0.000   0.238
  142        0.082   0.144   0.000   0.226
  143        0.083   0.145   0.000   0.228
  144        0.084   0.146   0.000   0.230
  145        0.088   0.158   0.000   0.246
  146        0.082   0.142   0.000   0.224
  147        0.076   0.126   0.000   0.202
  148        0.085   0.148   0.000   0.234
  149        0.086   0.150   0.000   0.236
  150        0.081   0.138   0.000   0.219
  151        0.080   0.138   0.000   0.218
  152        0.085   0.148   0.000   0.233
  153        0.080   0.136   0.000   0.216
  154        0.082   0.140   0.000   0.222
  155        0.088   0.153   0.000   0.241
  156        0.078   0.133   0.000   0.211
  157        0.077   0.130   0.000   0.207
  158        0.082   0.141   0.000   0.224
  159        0.077   0.129   0.000   0.206
  160        0.098   0.174   0.000   0.271
  161        0.083   0.144   0.000   0.227
  162        0.082   0.141   0.000   0.223
  163        0.083   0.145   0.000   0.228
  164        0.084   0.145   0.000   0.229
  165        0.086   0.151   0.000   0.237
  166        0.086   0.150   0.000   0.236
  167        0.080   0.136   0.000   0.215
  168        0.083   0.143   0.000   0.225
  169        0.093   0.166   0.000   0.259
  170        0.080   0.137   0.000   0.217
  171        0.091   0.162   0.000   0.253
  172        0.085   0.146   0.000   0.231
  173        0.086   0.148   0.000   0.234
  174        0.082   0.143   0.000   0.225
  175        0.084   0.145   0.000   0.229
  176        0.084   0.145   0.000   0.228
  177        0.089   0.158   0.000   0.247
  178        0.083   0.144   0.000   0.228
  179        0.088   0.156   0.000   0.244
  180        0.085   0.150   0.000   0.235
  181        0.093   0.165   0.000   0.258
  182        0.087   0.153   0.000   0.239
  183        0.085   0.149   0.000   0.234
  184        0.080   0.138   0.000   0.218
  185        0.087   0.152   0.000   0.239
  186        0.082   0.142   0.000   0.224
  187        0.088   0.156   0.000   0.244
  188        0.085   0.150   0.000   0.235
  189        0.084   0.147   0.000   0.231
  190        0.084   0.148   0.000   0.232
  191        0.083   0.142   0.000   0.225
  192        0.084   0.145   0.000   0.229
  193        1.493   2.835   0.006   4.334
  194        1.493   2.838   0.005   4.336
  195        1.493   2.833   0.005   4.332
  196        1.493   2.833   0.006   4.332
  197        1.493   2.834   0.006   4.333
  198        1.493   2.837   0.006   4.336
  199        1.492   2.845   0.005   4.342
  200        1.493   2.838   0.006   4.337
  201        1.492   2.842   0.006   4.340
  202        1.492   2.848   0.006   4.346
  203        1.494   2.820   0.005   4.320
  204        1.493   2.835   0.006   4.334
  205        1.493   2.837   0.006   4.336
  206        1.494   2.831   0.005   4.330
  207        1.493   2.843   0.006   4.341
  208        1.493   2.836   0.005   4.334
  209        1.493   2.837   0.006   4.337
  210        1.493   2.839   0.006   4.338
  211        1.492   2.843   0.005   4.340
  212        1.493   2.840   0.006   4.338
  213        1.493   2.838   0.006   4.336
  214        1.493   2.839   0.006   4.338
  215        1.493   2.841   0.005   4.339
  216        1.494   2.835   0.006   4.334
  217        1.493   2.835   0.005   4.334
  218        1.492   2.838   0.005   4.336
  219        1.494   2.825   0.005   4.325
  220        1.492   2.843   0.006   4.342
  221        1.493   2.832   0.006   4.332
  222        1.493   2.841   0.005   4.339
  223        1.492   2.844   0.006   4.342
  224        1.493   2.837   0.006   4.336
  225        1.333   2.427   0.000   3.760
  226        1.332   2.425   0.000   3.757
  227        1.332   2.424   0.000   3.757
  228        1.333   2.421   0.000   3.754
  229        1.330   2.419   0.000   3.749
  230        1.337   2.422   0.000   3.759
  231        1.334   2.420   0.000   3.754
  232        1.330   2.426   0.000   3.756
  233        1.334   2.412   0.000   3.746
  234        1.332   2.422   0.000   3.754
  235        1.329   2.421   0.000   3.751
  236        1.335   2.422   0.000   3.758
  237        1.334   2.426   0.000   3.760
  238        1.334   2.422   0.000   3.756
  239        1.332   2.421   0.000   3.752
  240        1.333   2.427   0.000   3.760
  241        1.332   2.412   0.000   3.744
  242        1.332   2.425   0.000   3.756
  243        1.332   2.423   0.000   3.755
  244        1.331   2.430   0.000   3.761
  245        1.332   2.422   0.000   3.754
  246        1.337   2.420   0.000   3.757
  247        1.335   2.422   0.000   3.757
  248        1.330   2.428   0.000   3.759
  249        1.333   2.427   0.000   3.760
  250        1.333   2.417   0.000   3.750
  251        1.331   2.424   0.000   3.755
  252        1.333   2.423   0.000   3.756
  253        1.332   2.421   0.000   3.752
  254        1.334   2.419   0.000   3.752
  255        1.331   2.421   0.000   3.752
  256        1.337   2.410   0.000   3.746
  257        1.334   2.414   0.000   3.748
  258        1.334   2.415   0.000   3.749
  259        1.333   2.427   0.000   3.760
  260        1.332   2.420   0.000   3.752
  261        1.334   2.420   0.000   3.754
  262        1.335   2.422   0.000   3.757
  263        1.333   2.423   0.000   3.756
  264        1.337   2.422   0.000   3.759
  265        1.331   2.423   0.000   3.755
  266        1.333   2.416   0.000   3.748
  267        1.334   2.426   0.000   3.760
  268        1.337   2.424   0.000   3.761
  269        1.333   2.420   0.000   3.753
  270        1.332   2.427   0.000   3.758
  271        1.334   2.421   0.000   3.756
  272        1.334   2.427   0.000   3.761
  273        1.333   2.419   0.000   3.752
  274        1.332   2.419   0.000   3.751
  275        1.334   2.418   0.000   3.751
  276        1.338   2.419   0.000   3.757
  277        1.332   2.426   0.000   3.758
  278        1.333   2.428   0.000   3.761
  279        1.335   2.415   0.000   3.750
  280        1.335   2.420   0.000   3.755
  281        1.332   2.431   0.000   3.763
  282        1.334   2.419   0.000   3.753
  283        1.334   2.419   0.000   3.753
  284        1.332   2.415   0.000   3.748
  285        1.330   2.431   0.000   3.761
  286        1.336   2.416   0.000   3.752
  287        1.333   2.424   0.000   3.756
  288        1.337   2.420   0.000   3.758
  289        1.335   2.420   0.000   3.756
  290        1.331   2.428   0.000   3.759
  291        1.337   2.417   0.000   3.754
  292        1.333   2.423   0.000   3.756
  293        1.331   2.424   0.000   3.755
  294        1.332   2.424   0.000   3.756
  295        1.335   2.416   0.000   3.750
  296        1.332   2.425   0.000   3.758
  297        1.334   2.424   0.000   3.759
  298        1.332   2.422   0.000   3.753
  299        1.338   2.421   0.000   3.758
  300        1.335   2.414   0.000   3.749
  301        1.334   2.423   0.000   3.758
  302        1.333   2.426   0.000   3.759
  303        1.335   2.421   0.000   3.756
  304        1.332   2.426   0.000   3.758
  305        1.334   2.423   0.000   3.757
  306        1.334   2.424   0.000   3.758
  307        1.336   2.421   0.000   3.756
  308        1.337   2.405   0.000   3.742
  309        1.337   2.410   0.000   3.747
  310        1.333   2.419   0.000   3.751
  311        1.332   2.427   0.000   3.760
  312        1.334   2.422   0.000   3.755
  313        1.334   2.419   0.000   3.753
  314        1.333   2.419   0.000   3.752
  315        1.335   2.423   0.000   3.758
  316        1.333   2.423   0.000   3.756
  317        1.334   2.424   0.000   3.758
  318        1.334   2.423   0.000   3.757
  319        1.331   2.425   0.000   3.756
  320        1.336   2.418   0.000   3.754
  321        1.332   2.421   0.000   3.753
  322        1.335   2.417   0.000   3.752
  323        1.335   2.422   0.000   3.757
  324        1.336   2.420   0.000   3.756
  325        1.334   2.418   0.000   3.752
  326        1.331   2.426   0.000   3.757
  327        1.330   2.423   0.000   3.753
  328        1.335   2.418   0.000   3.753
  329        1.335   2.422   0.000   3.757
  330        1.330   2.426   0.000   3.756
  331        1.336   2.415   0.000   3.750
  332        1.339   2.419   0.000   3.757
  333        1.335   2.422   0.000   3.757
  334        1.332   2.418   0.000   3.750
  335        1.331   2.418   0.000   3.749
  336        1.335   2.424   0.000   3.758
  337        1.332   2.429   0.000   3.761
  338        1.331   2.423   0.000   3.754
  339        1.335   2.419   0.000   3.754
  340        1.338   2.424   0.000   3.762
  341        1.332   2.425   0.000   3.757
  342        1.330   2.423   0.000   3.753
  343        1.332   2.413   0.000   3.746
  344        1.335   2.424   0.000   3.759
  345        1.338   2.411   0.000   3.749
  346        1.332   2.418   0.000   3.750
  347        1.334   2.428   0.000   3.762
  348        1.335   2.428   0.000   3.763
  349        1.332   2.419   0.000   3.751
  350        1.334   2.423   0.000   3.757
  351        1.330   2.423   0.000   3.753
  352        1.334   2.419   0.000   3.754
  353        1.299   2.492   0.000   3.790
  354        1.299   2.494   0.000   3.793
  355        1.299   2.496   0.000   3.795
  356        1.299   2.498   0.000   3.797
  357        1.299   2.498   0.000   3.797
  358        1.299   2.488   0.000   3.787
  359        1.299   2.496   0.000   3.795
  360        1.299   2.490   0.000   3.789
  361        1.299   2.490   0.000   3.789
  362        1.299   2.483   0.000   3.782
  363        1.299   2.487   0.000   3.786
  364        1.299   2.502   0.000   3.801
  365        1.299   2.486   0.000   3.785
  366        1.299   2.489   0.000   3.788
  367        1.299   2.483   0.000   3.782
  368        1.299   2.498   0.000   3.798
  369        1.299   2.503   0.000   3.802
  370        1.299   2.488   0.000   3.787
  371        1.299   2.488   0.000   3.787
  372        1.299   2.487   0.000   3.786
  373        1.299   2.493   0.000   3.792
  374        1.299   2.490   0.000   3.789
  375        1.299   2.490   0.000   3.789
  376        1.299   2.490   0.000   3.788
  377        1.299   2.487   0.000   3.786
  378        1.299   2.493   0.000   3.791
  379        1.299   2.493   0.000   3.792
  380        1.298   2.493   0.000   3.792
  381        1.299   2.499   0.000   3.798
  382        1.299   2.493   0.000   3.792
  383        1.299   2.485   0.000   3.784
  384        1.299   2.487   0.000   3.786
  385        0.970   1.381   0.000   2.351
  386        0.970   1.380   0.000   2.349
  387        0.970   1.377   0.000   2.347
  388        0.970   1.382   0.000   2.353
  389        0.970   1.379   0.000   2.349
  390        0.970   1.378   0.000   2.348
  391        0.970   1.374   0.000   2.343
  392        0.970   1.383   0.000   2.353
  393        0.970   1.384   0.000   2.355
  394        0.970   1.380   0.000   2.351
  395        0.970   1.378   0.000   2.348
  396        0.970   1.379   0.000   2.349
  397        0.970   1.381   0.000   2.351
  398        0.970   1.383   0.000   2.353
  399        0.970   1.382   0.000   2.353
  400        0.970   1.381   0.000   2.351
  401        0.970   1.378   0.000   2.348
  402        0.970   1.382   0.000   2.352
  403        0.971   1.381   0.000   2.352
  404        0.970   1.382   0.000   2.352
  405        0.970   1.383   0.000   2.353
  406        0.970   1.380   0.000   2.350
  407        0.970   1.380   0.000   2.350
  408        0.970   1.382   0.000   2.352
  409        0.969   1.381   0.000   2.350
  410        0.970   1.378   0.000   2.348
  411        0.970   1.381   0.000   2.351
  412        0.970   1.384   0.000   2.354
  413        0.970   1.381   0.000   2.351
  414        0.970   1.377   0.000   2.347
  415        0.970   1.374   0.000   2.344
  416        0.970   1.383   0.000   2.352
--------------------------------------------------
tot        307.162 552.566   0.179 859.908
 

 total amount of memory used by VASP MPI-rank0    48672. kBytes
=======================================================================

   base      :      30000. kBytes
   nonlr-proj:       5160. kBytes
   fftplans  :       5479. kBytes
   grid      :       5170. kBytes
   one-center:        210. kBytes
   wavefun   :       2653. kBytes
 
  
  
 General timing and accounting informations for this job:
 ========================================================
  
                  Total CPU time used (sec):      109.399
                            User time (sec):       73.205
                          System time (sec):       36.194
                         Elapsed time (sec):      169.485
  
                   Maximum memory used (kb):      214096.
                   Average memory used (kb):           0.
  
                          Minor page faults:        56336
                          Major page faults:            0
                 Voluntary context switches:         1102
