Li192 P32 S160 I32
1.0
20.433000 0.000000 0.000000
0.000000 20.433000 0.000000
0.000000 0.000000 20.433000
Li I S P
192 32 160 32
Direct configuration=      1
0.11622620 0.21228561 0.26100847
0.06599129 0.11992559 0.76418922
0.23597594 0.64170045 0.44504876
0.04960553 0.65191309 0.76533604
0.64117784 0.02205365 0.30048058
0.59203453 0.23622964 0.82353301
0.74912444 0.60753895 0.15367407
0.77133062 0.47398975 0.85749978
0.12079503 0.25355336 0.46055251
0.16923369 0.99582487 0.83559062
0.23591403 0.42200008 0.33337760
0.32908879 0.49913887 0.70719899
0.64466370 0.24348553 0.39662047
0.75090876 0.19041696 0.88949484
0.50259182 0.38731233 0.60437158
0.58862695 0.77159748 0.84677177
0.15865175 0.00557183 0.33843650
0.22932426 0.11137555 0.80927783
0.09981491 0.51824463 0.38819603
0.25087667 0.59798606 0.78530565
0.60022864 0.01359302 0.43644457
0.50594844 0.09026315 0.90148895
0.67507103 0.66323348 0.49475416
0.54480207 0.63231017 0.98042090
0.00010279 0.11022844 0.41820594
0.11619617 0.10375818 0.98473352
0.02828728 0.66126984 0.38138852
0.16204822 0.75345210 0.91848046
0.63242101 0.14154381 0.26687807
0.66937485 0.09432378 0.74240096
0.50020086 0.60317608 0.40272699
0.77712446 0.77216790 0.89997117
0.24811630 0.09676438 0.30395702
0.01915805 0.05644856 0.88814066
0.23897145 0.57123404 0.31928541
0.11430559 0.84194739 0.75329137
0.75681527 0.09742249 0.32894586
0.65760869 0.15852671 0.98911637
0.75954676 0.76906536 0.40657540
0.71313071 0.63806525 0.00338894
0.26612802 0.05763345 0.15354362
0.13545583 0.20772054 0.90453166
0.10098774 0.63501268 0.26335287
0.96253036 0.69474209 0.14269779
0.51737227 0.12920884 0.39008399
0.83826935 0.93032865 0.77449983
0.74271143 0.60886667 0.32534322
0.64154228 0.58146146 0.76862938
0.17005416 0.49720796 0.84785651
0.10643115 0.63012022 0.48942765
0.22313418 0.85607752 0.02548441
0.12680555 0.89434475 0.53382382
0.65590643 0.30046819 0.98838689
0.72833450 0.35579252 0.58980887
0.59625921 0.71832170 0.29522645
0.68501414 0.91277968 0.76167379
0.23964151 0.24215463 0.09873037
0.20072584 0.26655512 0.60959246
0.16157519 0.75488670 0.09439226
0.28532339 0.88822873 0.78191411
0.76464089 0.33643041 0.96262038
0.58290748 0.29788006 0.69433790
0.59327632 0.85674644 0.22959496
0.62919347 0.75615016 0.64152675
0.93703406 0.36696269 0.96847181
0.24274440 0.36428796 0.51707251
0.01412173 0.86794707 0.13209087
0.24573614 0.86088968 0.63987755
0.60639906 0.49178481 0.90166132
0.68323688 0.42073668 0.71450553
0.69283284 0.78748819 0.12131678
0.74513555 0.85218851 0.58830288
0.02201174 0.37350969 0.19226177
0.91293904 0.40096156 0.48478200
0.14430629 0.98391963 0.17138435
0.01794201 0.87765289 0.63422147
0.50157412 0.37281749 0.14321371
0.61166144 0.48287130 0.61822541
0.66358829 0.84213589 0.00832477
0.45587422 0.87517702 0.77540383
0.24193107 0.39475427 0.16877375
0.04231320 0.47153521 0.61275393
0.09882000 0.92010321 0.00783190
0.15496954 0.97384614 0.69093801
0.70324240 0.48225412 0.15648377
0.63607462 0.35050048 0.48838234
0.59498925 0.99829467 0.10873129
0.64697649 0.81694159 0.49665386
0.47321751 0.21833408 0.12979329
0.19823511 0.36476192 0.73449876
0.10316002 0.82921708 0.24550705
0.14683873 0.77175017 0.58788705
0.65139947 0.50054011 0.29075488
0.61520961 0.25897404 0.58096115
0.71646318 0.92821826 0.18248200
0.82028176 0.10073683 0.74926295
0.63657802 0.23431623 0.12361573
0.37420443 0.15674092 0.73367588
0.47853359 0.56540445 0.13333928
0.20998434 0.48897144 0.65974776
0.94748236 0.13652162 0.24069355
0.70331025 0.14591454 0.46427690
0.91597704 0.53588153 0.11024644
0.77282468 0.54948927 0.63256959
0.34363263 0.98926577 0.26080977
0.24269013 0.09056690 0.66107304
0.41170663 0.61909189 0.02637185
0.49460998 0.65514418 0.64898953
0.77266808 0.08421274 0.14327076
0.90095253 0.00098683 0.58076691
0.85973745 0.57263675 0.24311522
0.91575843 0.72368809 0.62448908
0.42474834 0.26792803 0.35593109
0.47387223 0.11725142 0.62953162
0.38391290 0.63423378 0.24978317
0.34027057 0.72926276 0.54866411
0.99941784 0.10613447 0.09585856
0.00339591 0.14363932 0.65756460
0.83477269 0.75103554 0.10853044
0.82812403 0.62629283 0.72929832
0.24777850 0.90407603 0.17503742
0.34438193 0.00951363 0.64324994
0.23277950 0.63577785 0.97066114
0.35002439 0.38093357 0.76008489
0.90129153 0.23667457 0.14629974
0.75973881 0.02424137 0.63110640
0.83737533 0.65764099 0.02955456
0.84171680 0.66264822 0.51080672
0.28076189 0.14688239 0.01844342
0.21200806 0.14818703 0.48894425
0.41540424 0.73827805 0.12973268
0.39575887 0.53353588 0.52672609
0.77288441 0.31660536 0.08570974
0.81995620 0.22884362 0.52277025
0.08900745 0.59124721 0.01836640
0.96755624 0.57690610 0.64422018
0.38420814 0.02751243 0.03588915
0.37749245 0.10315840 0.49847710
0.31079904 0.52779447 0.15711289
0.23085599 0.65007887 0.60000606
0.88479771 0.03544908 0.03950538
0.05028809 0.35408434 0.74321177
0.17205398 0.75293284 0.41253095
0.75834515 0.69758966 0.61325057
0.60457778 0.34284519 0.25647517
0.25802352 0.33943637 0.89034875
0.28915482 0.83333271 0.47435771
0.32068157 0.75846072 0.94762269
0.78336196 0.47289759 0.36238255
0.15275563 0.31864803 0.99948951
0.87637424 0.87601138 0.26265580
0.98979646 0.86331586 0.86695344
0.34079858 0.43370497 0.24804084
0.38625722 0.26175773 0.86047809
0.37354989 0.97932883 0.41858743
0.33195307 0.00737258 0.84305609
0.90448898 0.51390815 0.40782693
0.88582853 0.25554668 0.65814918
0.87176783 0.98510440 0.40856218
0.91602170 0.73893364 0.84381392
0.25671869 0.25809849 0.37853508
0.33141747 0.30735379 0.00285809
0.47823205 0.88283171 0.40650668
0.42567272 0.67110171 0.78255706
0.97960886 0.36523244 0.34761039
0.93325514 0.26104518 0.86748587
0.83478583 0.84202916 0.49251456
0.83200723 0.84675702 0.00947269
0.48683554 0.40669813 0.40998264
0.38941691 0.45286058 0.97519339
0.26146612 0.89444269 0.33601885
0.27121533 0.66005661 0.10403682
0.76263627 0.34026713 0.40673198
0.91081320 0.51106416 0.89648860
0.75930787 0.92711303 0.34426248
0.75647805 0.00742995 0.87056727
0.34113459 0.22405334 0.55121832
0.32530317 0.47872767 0.85909838
0.39550638 0.84541104 0.27791145
0.51399301 0.87224364 0.08403288
0.83606510 0.40958702 0.25970964
0.84219194 0.16988742 0.99882578
0.98019493 0.88939055 0.41490206
0.85467457 0.02870977 0.21795254
0.14454806 0.50331679 0.15986160
0.47225738 0.38144172 0.85044775
0.38719303 0.75075307 0.39097454
0.50324895 0.91020559 0.89491545
0.88921004 0.27789509 0.34351684
0.83437023 0.43486783 0.71269473
0.90286827 0.75752911 0.35182867
0.49569842 0.89954978 0.58136513
0.35846485 0.62351685 0.64219977
0.12476276 0.61998360 0.87755676
0.61846151 0.88151812 0.62189717
0.87800082 0.39019565 0.86300621
0.37545267 0.12365041 0.12420007
0.36374379 0.37431782 0.36804884
0.62769682 0.62988460 0.38586355
0.11138349 0.38133296 0.11281912
0.13960383 0.39000683 0.62536028
0.63434048 0.63995553 0.89201130
0.85581437 0.88106596 0.88675099
0.13164454 0.13426881 0.37944849
0.63380669 0.12046276 0.86900396
0.64509715 0.36686651 0.12506462
0.86013825 0.12652168 0.62354227
0.37483093 0.86459278 0.86727591
0.00699212 0.99724158 0.01059439
0.00317619 0.99691967 0.49646595
0.98238124 0.49761818 0.00765286
0.99479955 0.51077171 0.49829808
0.49919785 0.00444682 0.99851123
0.48127622 0.00703707 0.49226122
0.50629850 0.51147630 0.00261034
0.50570252 0.48118677 0.50274344
0.99570925 0.26010341 0.24824887
0.99832527 0.24029563 0.74130621
0.00001918 0.75319657 0.25962441
0.00888334 0.76378038 0.74357143
0.50833858 0.25422988 0.24340994
0.47259327 0.25256337 0.75249120
0.48890437 0.76044282 0.25680283
0.50792582 0.76129906 0.73030366
0.23824093 0.98913465 0.25153511
0.25300078 0.99875654 0.74690734
0.23933905 0.48202931 0.24070093
0.25046756 0.47554672 0.76739350
0.75060466 0.00483176 0.26018190
0.75266334 0.01256024 0.75207742
0.76584189 0.51599490 0.25127122
0.75160571 0.50999526 0.74146527
0.23581210 0.25986368 0.98254417
0.23308351 0.25033824 0.49914599
0.23873909 0.74543245 0.01465965
0.22426746 0.73937982 0.51340878
0.73684701 0.23704947 0.00291593
0.70912139 0.26534875 0.48944228
0.75641976 0.75057190 0.01927234
0.75624149 0.75351332 0.51537146
0.40937228 0.19929743 0.44178280
0.43858521 0.19767766 0.93624128
0.43425084 0.67764615 0.46649785
0.45087859 0.69186741 0.93312512
0.90822501 0.19053503 0.44244453
0.94380861 0.15922504 0.94364560
0.94282283 0.69703911 0.44855211
0.93448858 0.69238765 0.96056826
0.18810504 0.07097183 0.05573867
0.17514070 0.04059244 0.56363596
0.20046314 0.54947543 0.05644866
0.18628481 0.55837989 0.54778080
0.68147055 0.06477255 0.05922461
0.67739698 0.04503745 0.55354016
0.69669137 0.54786569 0.06240040
0.68387304 0.55468321 0.54895706
0.29084447 0.04945989 0.43813022
0.30558606 0.05203403 0.95297561
0.31403813 0.56268963 0.43920292
0.31228433 0.54797239 0.94253722
0.80010920 0.06045151 0.45097215
0.80991251 0.06285556 0.95056667
0.80713110 0.56475892 0.43846801
0.80175283 0.54786656 0.94182435
0.06746370 0.18640305 0.04901990
0.04554381 0.19397970 0.54225170
0.04953311 0.70179571 0.07663093
0.04172310 0.69896556 0.57768007
0.56144123 0.18584116 0.04336645
0.53895455 0.18304220 0.53741141
0.52972536 0.70241919 0.07262261
0.56316007 0.69082927 0.56337078
0.12486906 0.09706372 0.87119317
0.13473815 0.63082181 0.37476222
0.64051643 0.12062501 0.37702218
0.44532312 0.45991600 0.18702756
0.42867107 0.45199593 0.68740204
0.43764963 0.94269058 0.20714462
0.45318075 0.95664482 0.67665168
0.92594349 0.46848140 0.19546181
0.95538451 0.45843328 0.69580116
0.93772983 0.94165697 0.20196845
0.93085623 0.93792604 0.68528344
0.18764488 0.30346242 0.29160790
0.16808408 0.29737267 0.81461681
0.19732647 0.80088409 0.31669281
0.19932794 0.80970647 0.83124300
0.69888611 0.30760815 0.30202832
0.68003219 0.31993327 0.79751200
0.67338938 0.81173501 0.32054858
0.68889779 0.81798958 0.81259983
0.31183852 0.31147621 0.18271095
0.29129088 0.29303850 0.70060282
0.31267926 0.79399431 0.19105790
0.31174735 0.78959963 0.70471576
0.82124686 0.31589024 0.19113775
0.79778317 0.32974898 0.68173247
0.78372154 0.83216406 0.19697412
0.79619387 0.81954996 0.68932079
0.06631174 0.44760752 0.29776789
0.06260833 0.44803794 0.81612128
0.06014300 0.93141845 0.31835342
0.05406569 0.93892266 0.80789985
0.55807974 0.42917487 0.30801749
0.56303885 0.43980919 0.79619523
0.56683721 0.93998471 0.31275444
0.55667318 0.94389423 0.80136305
0.13233918 0.86541770 0.12464124
0.13378161 0.87279390 0.64045911
0.61736157 0.36895605 0.61400363
0.62072375 0.87654531 0.12121846
0.20747773 0.17925403 0.19444815
0.17134076 0.18270553 0.71108991
0.19563856 0.67891854 0.19187272
0.19053006 0.68916262 0.70820808
0.72253543 0.18333288 0.18726241
0.67481410 0.20453526 0.68385095
0.68399239 0.69012574 0.20858204
0.68886206 0.69131926 0.70563481
0.43936522 0.05413149 0.32136060
0.43328311 0.06912976 0.80578193
0.44460720 0.55070362 0.31573094
0.43241777 0.54942896 0.81679954
0.94319538 0.04878304 0.31679386
0.94235753 0.05899289 0.80131381
0.95992579 0.56611961 0.32024785
0.96134334 0.57769677 0.80113137
0.05346090 0.05686309 0.20205222
0.05191706 0.03743903 0.67539122
0.04905818 0.57288604 0.19094655
0.07984131 0.56425723 0.69901498
0.56430733 0.06052010 0.20261787
0.55535180 0.07478841 0.69552700
0.57566202 0.56047296 0.19729744
0.55262119 0.56380440 0.69120248
0.31058073 0.19811443 0.31600553
0.30662864 0.19110606 0.81990252
0.31756493 0.68605716 0.31727971
0.30630259 0.68879644 0.83826309
0.81505059 0.20046132 0.31594305
0.80905527 0.20559676 0.79502842
0.80399513 0.72014763 0.31917896
0.80364878 0.70172031 0.80877101
0.35909924 0.12003647 0.61207765
0.37420351 0.62128049 0.13705412
0.87920312 0.12342584 0.13009717
0.86611076 0.63922449 0.12340434
0.85376292 0.62914798 0.62477087
0.19568274 0.44920707 0.43517786
0.18772398 0.43242369 0.94861915
0.19210440 0.91943124 0.44066048
0.19327869 0.93190161 0.94893801
0.68951383 0.44765761 0.41832996
0.70038279 0.42082018 0.93667148
0.69024650 0.93656827 0.42549044
0.70375933 0.94475052 0.94398612
0.44706653 0.30268173 0.05073042
0.43688449 0.30995874 0.57127502
0.42180674 0.82525375 0.03352593
0.43017930 0.79475140 0.56379121
0.92808318 0.28094256 0.04548758
0.92487720 0.30697028 0.55481236
0.93273248 0.80769356 0.06746760
0.93741031 0.82097741 0.56384297
0.02542802 0.29544509 0.42544227
0.04383485 0.28293642 0.93750116
0.06759981 0.81259347 0.45908827
0.05589257 0.80943228 0.95296157
0.53050564 0.30094092 0.43401817
0.55861219 0.30930516 0.92901152
0.54512409 0.79616577 0.44341280
0.56176274 0.81699108 0.94537770
0.31137043 0.42529093 0.05604800
0.30092401 0.45222622 0.56048672
0.29129356 0.94016659 0.07235818
0.30275221 0.92929289 0.55740583
0.80879895 0.42057906 0.06264948
0.81127225 0.44535529 0.54669385
0.79203084 0.94904858 0.08301348
0.80037228 0.93941957 0.55164986
0.36527055 0.37255865 0.88921129
0.36550374 0.86863093 0.38522552
0.86862267 0.39460782 0.37014275
0.86538453 0.86927209 0.38603163
0.23875357 0.99836697 0.00716098
0.23871485 0.98988702 0.50134223
0.25395847 0.48618386 0.00127525
0.24920888 0.50563054 0.49318032
0.74792664 0.00215927 0.00946837
0.74008568 0.99620440 0.49300364
0.75230344 0.48091142 0.00020924
0.74630218 0.50088727 0.48727580
0.25971652 0.25013364 0.24421617
0.23640232 0.23688598 0.76558248
0.25518152 0.73822171 0.25732555
0.25162492 0.74394804 0.77130370
0.76095448 0.24977845 0.24950495
0.74288218 0.26095475 0.73850089
0.74007458 0.76735195 0.25651704
0.74467872 0.76174162 0.74925612
0.00481110 0.98989941 0.25946622
0.99305323 0.99461922 0.74053576
0.00219602 0.51027834 0.24974387
0.01577631 0.50865954 0.75742249
0.50514698 0.00141479 0.25631473
0.50021455 0.01043964 0.74352038
0.50895108 0.50082068 0.25361104
0.49255308 0.50040510 0.74832181
0.99381020 0.22608712 0.99989396
0.97517818 0.24768989 0.49479071
0.99529996 0.75634443 0.01148582
0.00122043 0.76183132 0.51296775
0.50136480 0.24921299 0.99032627
0.47624374 0.24737264 0.50664366
0.49199507 0.76218532 0.99917215
0.49596762 0.74374585 0.50837082
Direct configuration=      2
0.11401239 0.23341511 0.27231248
0.09289647 0.15636765 0.76504764
0.23424556 0.65491191 0.44895867
0.06698516 0.65375327 0.74199149
0.64673914 0.01852402 0.26309849
0.60211895 0.24047141 0.82705526
0.73738682 0.59279280 0.17652112
0.75865464 0.48233116 0.84903523
0.13633175 0.28526320 0.48043672
0.13396643 0.00018122 0.86151742
0.21729818 0.43393289 0.32635663
0.34479316 0.50457686 0.75931457
0.65702120 0.24453139 0.40360183
0.73755631 0.23728273 0.88755529
0.49646226 0.35797712 0.61113689
0.58843420 0.75446172 0.84414753
0.15455854 0.01163493 0.33552357
0.20014155 0.09659201 0.80358252
0.10400628 0.51324354 0.41003149
0.20202218 0.61535821 0.80025080
0.59561374 0.01613848 0.42144033
0.52103268 0.09351383 0.89013111
0.65907604 0.68843401 0.50135047
0.51765992 0.62597483 0.96192507
0.01160613 0.10800887 0.40901625
0.09604281 0.10830700 0.00161546
0.01896626 0.63652483 0.40162699
0.15897681 0.76511056 0.93710789
0.58728032 0.16276950 0.27501445
0.68063813 0.09108483 0.72405183
0.49553837 0.59953591 0.42556013
0.74128743 0.76368861 0.92074023
0.22851049 0.10951820 0.30038562
0.00038728 0.08515756 0.88742113
0.23884500 0.57654724 0.31141384
0.13347647 0.80760152 0.73524859
0.74116395 0.09086320 0.31583531
0.67101725 0.15182068 0.98081443
0.77962545 0.80890432 0.39914282
0.70050660 0.64473029 0.02593233
0.24246153 0.08003000 0.16141372
0.17438352 0.19990881 0.91691639
0.10683708 0.66391566 0.27323619
0.96060150 0.69872155 0.15902498
0.51289297 0.12587972 0.40770815
0.82996765 0.91343560 0.76870895
0.72411759 0.60700576 0.30881533
0.65894201 0.59244882 0.74380751
0.15065902 0.48287157 0.84457563
0.10292709 0.64445421 0.50068284
0.24690721 0.85496020 0.04602527
0.10438908 0.91588652 0.53783848
0.66041119 0.32374022 0.97326149
0.71753939 0.34877088 0.57422373
0.60248167 0.72913548 0.30483762
0.66846924 0.93570622 0.74688104
0.26062520 0.22611368 0.10766728
0.22356311 0.27096858 0.62052230
0.16359561 0.76249033 0.10620136
0.27448695 0.89143288 0.76070582
0.82630693 0.33664184 0.98616131
0.58966070 0.30832224 0.70642864
0.57810324 0.86106944 0.22865551
0.61668341 0.75961542 0.63689285
0.99509720 0.37829740 0.99543535
0.27655226 0.35498855 0.49040975
0.02119000 0.85183034 0.13566955
0.26073457 0.83100313 0.59811064
0.59680306 0.50161422 0.90519772
0.66286541 0.44419730 0.72882930
0.66188601 0.77168687 0.11984960
0.73620025 0.85022605 0.59211670
0.04066491 0.37334000 0.21019301
0.88979465 0.39622539 0.47716171
0.13081151 0.98362735 0.14518496
0.02494362 0.84631702 0.64475484
0.50457871 0.36986204 0.13396094
0.60710235 0.48868647 0.61291542
0.66975406 0.85016935 0.01311862
0.48310551 0.87977167 0.78134235
0.23982500 0.40045865 0.17041385
0.03429194 0.44234814 0.60484527
0.09682219 0.90305564 0.01151687
0.17010941 0.96736526 0.67117475
0.74565414 0.45140906 0.13976837
0.59876091 0.37849706 0.50258344
0.58891308 0.99499091 0.11406551
0.64782839 0.84047857 0.47181121
0.49926302 0.17501745 0.13534283
0.20293920 0.39536774 0.74331958
0.09639054 0.85901561 0.23433268
0.14716833 0.75820410 0.60291827
0.64582039 0.50043094 0.33195673
0.65532856 0.24017441 0.57195423
0.72962881 0.90841531 0.16229610
0.82629059 0.08511928 0.74218271
0.66542444 0.23680790 0.07918700
0.37856280 0.14022932 0.74208934
0.47976266 0.56252415 0.13068140
0.15904682 0.51313773 0.67409487
0.91113358 0.15542288 0.24147441
0.69359960 0.13648043 0.46425034
0.95189150 0.57253499 0.13754887
0.80205658 0.54067051 0.62086711
0.35814026 0.03246492 0.23165698
0.24571692 0.08661967 0.66548490
0.36243807 0.63980599 0.00676547
0.49766829 0.64317971 0.63737871
0.76436446 0.09854827 0.15905785
0.90395177 0.99374799 0.58979740
0.84683592 0.55508438 0.24173086
0.92240696 0.73059262 0.63789738
0.42829367 0.26377903 0.33812483
0.46519001 0.09347397 0.60307832
0.37655438 0.60702864 0.24141357
0.34940445 0.72905290 0.56758837
0.00039613 0.09186318 0.11587611
0.98943705 0.12556732 0.59709728
0.80260723 0.73155319 0.11843582
0.84773028 0.58577353 0.72825396
0.23228409 0.90520339 0.19816535
0.34223909 0.01854710 0.66418511
0.24474978 0.64700737 0.92258441
0.39688003 0.34060297 0.76991448
0.91677115 0.23202055 0.14781325
0.75001349 0.01242604 0.63340181
0.85131577 0.65246484 0.03277250
0.82531484 0.67235807 0.50339917
0.31560559 0.16647237 0.97771566
0.21744307 0.13825959 0.51740580
0.42156226 0.73147349 0.12254311
0.37766129 0.55339122 0.52273940
0.76895180 0.30659113 0.09590880
0.82960677 0.22479492 0.50492078
0.11886752 0.60037442 0.00268809
0.94902628 0.55983977 0.61125523
0.37664742 0.04045183 0.01200873
0.37304133 0.09442107 0.51736512
0.31574064 0.52723714 0.15228946
0.24138020 0.64272748 0.61621360
0.88605471 0.02605163 0.05365778
0.03458674 0.35975066 0.70965357
0.13687052 0.75567864 0.39168862
0.78604846 0.71377644 0.62783747
0.61766048 0.34697685 0.24323443
0.27240859 0.32837947 0.89693031
0.29875753 0.82195171 0.45444367
0.33216007 0.77660847 0.96245609
0.77399684 0.46210004 0.34829898
0.13593797 0.31241423 0.00361886
0.87152727 0.88519506 0.24899586
0.98765938 0.86985598 0.83748180
0.35476793 0.41303615 0.24589379
0.37398767 0.24567878 0.86490453
0.38167557 0.97092100 0.40403556
0.33838743 0.99548706 0.82128226
0.89054223 0.49976954 0.38864811
0.88797130 0.28092535 0.65519248
0.86614476 0.99199027 0.39263797
0.90169114 0.75405869 0.84733439
0.28964782 0.24356401 0.39427509
0.35833125 0.30676221 0.00090977
0.47086734 0.86573390 0.38077659
0.42945063 0.66591419 0.77406697
0.98102480 0.37563366 0.34553774
0.91649856 0.23061466 0.84505179
0.84327206 0.85235689 0.49389631
0.82869687 0.84388029 0.00847057
0.49366335 0.40851883 0.40574805
0.39476849 0.44411812 0.97748685
0.27048017 0.91113489 0.32829143
0.28088287 0.67082163 0.11854278
0.75716767 0.32998479 0.40747645
0.91024858 0.53383045 0.91365185
0.74465309 0.92728576 0.33250994
0.73459985 0.01401673 0.85687400
0.35099697 0.21579067 0.54275793
0.29666980 0.46313135 0.87791130
0.39730027 0.86711353 0.25053306
0.53324031 0.86760772 0.06085042
0.84269067 0.40212431 0.25486365
0.85983084 0.16139212 0.02619996
0.97716256 0.88880801 0.39126576
0.86875072 0.02380054 0.19425330
0.14817722 0.50759431 0.16832578
0.48189520 0.36397326 0.86650125
0.39414498 0.74882818 0.35384980
0.50955505 0.90550321 0.90572441
0.88842527 0.26291457 0.34337617
0.81285753 0.41147410 0.73569957
0.89975626 0.76484332 0.35375423
0.49020951 0.92008911 0.60207432
0.36994975 0.61011503 0.64661260
0.10555033 0.61775373 0.88407481
0.61715756 0.87843894 0.62964793
0.87457797 0.39250351 0.85282515
0.36349402 0.13041356 0.12878805
0.36209903 0.37168633 0.37172167
0.62779748 0.62918557 0.39356401
0.10928487 0.38625822 0.10665689
0.13819125 0.38808059 0.62025619
0.63366434 0.63492987 0.88971946
0.86635444 0.88212678 0.88589578
0.13370878 0.12413786 0.38642866
0.63837998 0.12519358 0.85587427
0.62234217 0.36874446 0.10724472
0.85400769 0.12334149 0.62099428
0.39355934 0.86943942 0.86370111
0.00730808 0.98937765 0.02485104
0.99231791 0.98803419 0.48204203
0.99738069 0.51394529 0.00915187
0.99795929 0.50958479 0.50108447
0.49068661 0.99470429 0.99676719
0.48191867 0.00291345 0.50010437
0.51976456 0.50442587 0.01401759
0.50164782 0.48258476 0.51268091
0.99354544 0.26046176 0.24309244
0.99310756 0.24529845 0.74387247
0.99808438 0.75831136 0.27205401
0.00181542 0.76991996 0.74695610
0.50836130 0.24914939 0.23533854
0.47646405 0.24759798 0.76740251
0.48382262 0.75976969 0.25245450
0.50761967 0.76134366 0.73722280
0.23624550 0.99703169 0.25637721
0.26294360 0.00265514 0.73937199
0.26559428 0.48841019 0.24278662
0.23903638 0.50830758 0.76673170
0.76272363 0.99799994 0.24557227
0.74954574 0.00778861 0.74948281
0.75085742 0.50703800 0.25038709
0.75296207 0.50422771 0.73068622
0.24063027 0.26098926 0.99957313
0.23991637 0.24495799 0.50308444
0.24667761 0.73505135 0.01414732
0.24884889 0.73344054 0.53022350
0.74283216 0.25623059 0.99729825
0.72674776 0.25001676 0.49137966
0.74749573 0.75297315 0.02601365
0.74193629 0.76753105 0.51104140
0.42042285 0.18618158 0.43341873
0.43218578 0.18085119 0.94550223
0.41945266 0.69286955 0.45952143
0.43348581 0.70829337 0.94097728
0.92604634 0.18849051 0.43944244
0.95255189 0.15963217 0.94938486
0.93290882 0.70506097 0.44806505
0.94399482 0.68714951 0.94180845
0.18508507 0.05964571 0.06451728
0.18375896 0.01877352 0.56687841
0.20361227 0.56867505 0.06659692
0.17949185 0.56587082 0.55324853
0.68806879 0.05862122 0.06804311
0.68169969 0.04818583 0.55450689
0.69916762 0.53850195 0.08120033
0.68776081 0.55847012 0.54528426
0.29948144 0.04625426 0.44366595
0.29267703 0.05024158 0.93039829
0.28874236 0.55111261 0.42724814
0.33255630 0.54355215 0.94883056
0.79911107 0.07111370 0.44724086
0.80369141 0.06506800 0.96100556
0.78531719 0.56198866 0.41914516
0.79613813 0.56567508 0.94607813
0.04511206 0.20619210 0.06018632
0.05326070 0.20737894 0.53541621
0.05437687 0.70117342 0.06443057
0.04556635 0.70196963 0.58115555
0.56304649 0.17731745 0.03911451
0.54512527 0.20126951 0.54360728
0.54683336 0.69232843 0.06374643
0.55220790 0.69394652 0.55671560
0.11108101 0.11369954 0.87888791
0.12624959 0.63596288 0.39042237
0.62963266 0.11524572 0.36361970
0.44292615 0.45239699 0.18714678
0.44447804 0.42905837 0.70607261
0.44614495 0.95343828 0.19496612
0.43714513 0.96142014 0.69122721
0.94048987 0.46081599 0.19826960
0.94619895 0.44463792 0.67379198
0.95433076 0.94787707 0.18320998
0.94586655 0.93438751 0.67802836
0.19949476 0.30112002 0.31413817
0.17870087 0.30149277 0.81124697
0.20059945 0.81512574 0.30764601
0.21350578 0.81680566 0.82923771
0.70241305 0.29703973 0.31331018
0.67911062 0.32644641 0.79562400
0.69514186 0.82097037 0.31195073
0.68600916 0.80696189 0.82601796
0.31620576 0.30423558 0.18931255
0.29434004 0.31317615 0.70528733
0.31435606 0.79296333 0.18513762
0.32298764 0.79522169 0.71419909
0.81877630 0.29862478 0.19258945
0.78623162 0.32465319 0.66908975
0.79729097 0.81223199 0.19387959
0.80210011 0.80456192 0.70681178
0.05459679 0.46201650 0.31063866
0.04766590 0.43069793 0.79379554
0.06217099 0.93936056 0.30811531
0.06648684 0.93090457 0.79375552
0.56101115 0.42008681 0.31521643
0.56240590 0.43182099 0.81536112
0.55191515 0.94552748 0.32496478
0.56744638 0.96253519 0.80897435
0.14230847 0.87308920 0.13922218
0.14118548 0.86785062 0.63314680
0.61847397 0.38047991 0.62275866
0.62220452 0.88361654 0.12548425
0.19662878 0.18655638 0.20012747
0.18850396 0.17752283 0.70248192
0.20183615 0.68099986 0.19569247
0.18251263 0.70128517 0.71428358
0.69141532 0.18934682 0.19280546
0.67642085 0.19843661 0.69122745
0.67885193 0.69540465 0.21612191
0.68514905 0.69600550 0.70150196
0.43856452 0.06237985 0.32505182
0.44003897 0.06642840 0.80796592
0.44718505 0.54080601 0.32433534
0.43799546 0.54195067 0.81921561
0.93457827 0.04974134 0.30867842
0.93166935 0.03291738 0.80230869
0.94180038 0.58138364 0.31264588
0.95454387 0.56982557 0.79793656
0.06786369 0.07278376 0.21470745
0.05671587 0.06086745 0.68924009
0.06443177 0.58335025 0.19340429
0.05811894 0.55661840 0.67393874
0.55770301 0.07191781 0.20757467
0.55378223 0.08270677 0.68939839
0.56995019 0.55608643 0.21430313
0.55584206 0.55422852 0.69996957
0.32004943 0.18427585 0.30528712
0.28849372 0.18570333 0.82180580
0.31109152 0.67508573 0.31185866
0.30352458 0.66690974 0.82210080
0.81638665 0.17615330 0.30048995
0.80434286 0.20913194 0.79469631
0.81613081 0.70315282 0.30995363
0.79608492 0.68487619 0.82818942
0.35902947 0.12205707 0.61921567
0.37361529 0.62139822 0.12526873
0.88369832 0.11749440 0.13412272
0.86610463 0.64272465 0.14467257
0.86076933 0.63827257 0.61818430
0.18335923 0.43040059 0.44228586
0.20580425 0.44287153 0.94943403
0.19712760 0.90826274 0.44698170
0.18974002 0.93711701 0.95567431
0.68771349 0.43523389 0.42454205
0.69182077 0.44751884 0.94045733
0.68736935 0.94065573 0.44292083
0.69087269 0.94064775 0.94779515
0.45071703 0.30554950 0.04828150
0.42261392 0.31669099 0.53040933
0.43031804 0.82203907 0.05029020
0.43522724 0.81202221 0.56601506
0.91585384 0.29504549 0.03412100
0.91115002 0.30518636 0.54361945
0.93487103 0.80292801 0.05964006
0.94171658 0.82217096 0.56214048
0.03428290 0.32649984 0.42908003
0.04530322 0.29567170 0.92601844
0.05618923 0.81443083 0.44656079
0.04401767 0.80559431 0.93225560
0.53854968 0.30354712 0.42140443
0.55807925 0.29544645 0.93046295
0.53707838 0.80326530 0.43093862
0.56385485 0.81068159 0.94568208
0.31655694 0.43694430 0.07105915
0.30331756 0.45313393 0.55393083
0.30963853 0.95163062 0.06367970
0.32063688 0.92663721 0.54748933
0.82180489 0.43887655 0.04399361
0.80585606 0.44829929 0.53775202
0.81488950 0.95113365 0.06923359
0.79997098 0.94176935 0.56208187
0.37299457 0.36416282 0.88592095
0.36593953 0.87414262 0.35953639
0.85724540 0.38200171 0.36446585
0.86558992 0.88336136 0.37124119
0.24761701 0.00122891 0.00728033
0.24897209 0.97088007 0.50319318
0.25953345 0.49829540 0.01162726
0.23915001 0.50074792 0.49826652
0.74458101 0.00011714 0.01099996
0.74348573 0.00402107 0.49937232
0.75444507 0.49817963 0.00770235
0.74024975 0.49963087 0.48805672
0.26457963 0.24615578 0.25051032
0.23783121 0.24687004 0.75879923
0.25384341 0.74547268 0.25351515
0.25772892 0.74672555 0.77119283
0.75973413 0.23729274 0.24813148
0.73578525 0.26558674 0.73795000
0.74663944 0.75625478 0.25989413
0.74338455 0.74806877 0.76764339
0.00630214 0.00093073 0.25345288
0.00159357 0.98915698 0.74614289
0.00173673 0.52489953 0.25346157
0.99966057 0.50246369 0.73553138
0.49395248 0.00755899 0.26692894
0.50385588 0.01818396 0.74794563
0.51004424 0.49537493 0.26010553
0.50233352 0.49261981 0.76056235
0.99155726 0.23937006 0.98481465
0.98185642 0.25781445 0.48535155
0.99497664 0.74781664 0.00244144
0.99687168 0.75678155 0.50699514
0.50269320 0.23920924 0.98849413
0.48249585 0.25092037 0.48316641
0.49261961 0.75965004 0.00260270
0.48601557 0.75370274 0.50738312
Direct configuration=      3
0.10120053 0.22719684 0.30924963
0.10326916 0.17001347 0.77404039
0.25969120 0.67356762 0.43626632
0.02154060 0.62192768 0.78430774
0.65746807 0.98387553 0.24433881
0.60087560 0.24353101 0.83272066
0.75739536 0.59573034 0.15131962
0.78092948 0.52178553 0.84975391
0.14825725 0.29255102 0.49950433
0.10504883 0.99876014 0.90094217
0.24117166 0.41608073 0.33064948
0.33460799 0.49937308 0.71346241
0.64331376 0.23353634 0.41825071
0.74484973 0.23299517 0.87259256
0.48946928 0.37765115 0.62033984
0.56803329 0.74268508 0.86484006
0.15010391 0.00314991 0.32004518
0.23326347 0.07743954 0.83429097
0.10733550 0.51828766 0.39796369
0.23869349 0.60067065 0.76218393
0.61595698 0.00606714 0.40685914
0.52498852 0.11858001 0.89905186
0.67280255 0.67996501 0.50743671
0.50568965 0.59799843 0.94751261
0.98995761 0.09454075 0.39844951
0.10082870 0.11416351 0.99345245
0.01807678 0.64076242 0.41283836
0.16040626 0.75541674 0.91464734
0.59842900 0.15421028 0.28520614
0.66386996 0.06630529 0.73781265
0.49682235 0.60845913 0.42268683
0.71361932 0.74559158 0.90385233
0.21971098 0.10826132 0.28672562
0.99606900 0.13442901 0.86852237
0.21836652 0.58745322 0.31015171
0.10432590 0.84626314 0.73987135
0.73421589 0.07466701 0.34748115
0.68865667 0.15443988 0.97449256
0.77115342 0.77337531 0.41191437
0.69076854 0.65455046 0.00965000
0.23245003 0.08187638 0.15954676
0.20184375 0.20917365 0.90195352
0.07886044 0.66799028 0.27605705
0.95798983 0.69611231 0.14491831
0.51707337 0.09450510 0.40387333
0.86393756 0.92473262 0.74502900
0.73141626 0.59147065 0.31788492
0.66598860 0.59658251 0.76798260
0.15997586 0.49344271 0.84509634
0.11241311 0.62898506 0.49332524
0.23808289 0.85267180 0.05303760
0.11736520 0.93738153 0.53403663
0.64876896 0.34306873 0.96664119
0.73573899 0.33952365 0.57543332
0.60099977 0.73680887 0.31940346
0.66203429 0.93102042 0.74899526
0.26752862 0.25232728 0.10651800
0.21968815 0.26652963 0.61498149
0.14503813 0.75949305 0.08413246
0.27856286 0.88655087 0.75786394
0.80347377 0.35871293 0.97108970
0.60201798 0.29995601 0.70321586
0.53669521 0.87518520 0.21439081
0.60218688 0.75604363 0.64880487
0.03051601 0.38313427 0.00762288
0.31124437 0.33951473 0.51129933
0.01508262 0.87582130 0.12168691
0.25531061 0.83942324 0.60729618
0.60802426 0.49687334 0.91635979
0.68708231 0.42072030 0.72718092