Li192 P32 S160 I32
1.0
20.433000 0.000000 0.000000
0.000000 20.433000 0.000000
0.000000 0.000000 20.433000
Li I S P
192 32 160 32
Direct configuration=      1
0.11316477 0.21943857 0.28499823
0.08806446 0.13924011 0.76723217
0.22792181 0.64736417 0.45844894
0.07932853 0.65525591 0.75410086
0.64159893 0.02051242 0.28920274
0.58707542 0.24440967 0.84454671
0.75457877 0.60833997 0.15630523
0.76320893 0.49890226 0.85313562
0.12879287 0.25722725 0.48493530
0.14901799 0.99988126 0.84281921
0.23156076 0.41891763 0.33136139
0.35444128 0.51762067 0.71180171
0.64470865 0.23375118 0.40342308
0.75096990 0.18849015 0.90743546
0.50854458 0.37386799 0.60897327
0.59523526 0.74505095 0.83977590
0.15305134 0.99663407 0.33432999
0.21967476 0.10502558 0.80854466
0.10558254 0.51585417 0.38616711
0.23503108 0.60582578 0.78098236
0.61658600 0.02257160 0.44507174
0.50174058 0.09112103 0.90588313
0.67118550 0.66843696 0.49646781
0.52589870 0.61558907 0.95507843
0.01065289 0.11956897 0.45383805
0.10314214 0.09935380 0.98698793
0.01903344 0.65718885 0.36336122
0.16055032 0.75657403 0.92077133
0.60171274 0.15429895 0.26902819
0.66273092 0.08544124 0.74962483
0.49845304 0.58999418 0.41103160
0.76091495 0.76695887 0.90213431
0.23867909 0.10292905 0.30044868
0.00614383 0.09341257 0.88803763
0.23817693 0.58717550 0.32363375
0.10713126 0.84473258 0.73688908
0.74545862 0.08792502 0.33727896
0.65668156 0.15362567 0.00391739
0.77158547 0.78044165 0.39497746
0.67503762 0.66809421 0.00777200
0.24234233 0.08108948 0.16256342
0.15404913 0.21998008 0.90729298
0.11462371 0.65540827 0.26329642
0.97462432 0.65759611 0.14648132
0.51519208 0.11132399 0.39398507
0.83261623 0.91827593 0.74796820
0.74997970 0.60143950 0.33102178
0.66769538 0.57976978 0.74635512
0.16003594 0.49356707 0.83694731
0.08943865 0.61402399 0.48707645
0.23194238 0.85442030 0.02654896
0.11347995 0.93529776 0.52842609
0.65374506 0.33480539 0.98909562
0.73929620 0.34599956 0.58494476
0.61002498 0.72331642 0.30383387
0.66038771 0.92117613 0.75881093
0.21735748 0.26118012 0.10896150
0.20261319 0.26620042 0.61787894
0.15502806 0.75753989 0.09360089
0.26764672 0.89286546 0.76656442
0.79231177 0.34745701 0.96478697
0.60384195 0.29384106 0.70904713
0.59948712 0.85985920 0.23486794
0.60048552 0.75635693 0.64766664
0.97153715 0.37328411 0.97408397
0.26644709 0.36142033 0.49606118
0.01662537 0.85622350 0.13400688
0.23877045 0.84160026 0.60309129
0.60054449 0.49081162 0.90059349
0.68455764 0.41060613 0.72070635
0.69818557 0.78580908 0.11806449
0.75055496 0.83840636 0.59313958
0.01789831 0.37714358 0.20028025
0.89531166 0.39558316 0.49003022
0.13926906 0.98532899 0.15689404
0.01219568 0.86179663 0.63416085
0.49434464 0.35604022 0.14740144
0.60868748 0.48351402 0.60216439
0.65157858 0.85445811 0.01147775
0.45278502 0.86087019 0.76989038
0.25447601 0.40419501 0.17478600
0.03071966 0.46583172 0.61180161
0.09529363 0.90130278 0.01911827
0.15760700 0.97782032 0.66950276
0.72635605 0.47109254 0.14768788
0.63383938 0.35085883 0.50176676
0.60180454 0.99129425 0.11137831
0.65840803 0.82919925 0.49046071
0.46097506 0.20325402 0.13258822
0.21883313 0.38537536 0.73585219
0.11159479 0.84818528 0.23843282
0.13066456 0.78123095 0.55354692
0.64208817 0.51998952 0.27710668
0.64799527 0.24582062 0.58609480
0.72766463 0.92834971 0.16662839
0.82829473 0.08826694 0.74939965
0.65208390 0.24537879 0.10229209
0.38469077 0.14177074 0.73874594
0.46248680 0.54310192 0.12552917
0.20482531 0.49889573 0.64672163
0.90047358 0.14361006 0.25017082
0.70817106 0.14050453 0.47254270
0.89593120 0.52269189 0.09111316
0.78803022 0.53754962 0.63016308
0.35598698 0.02021770 0.22642402
0.25312565 0.09543632 0.65841415
0.38430193 0.61332965 0.01184641
0.49764986 0.63786954 0.63824978
0.75842502 0.09325585 0.16981778
0.90486074 0.00136555 0.58932011
0.86060776 0.57250025 0.22759502
0.89999731 0.73527301 0.65378157
0.41307768 0.25325052 0.34709818
0.48203054 0.12730246 0.63139158
0.39478441 0.63995274 0.24037546
0.35671176 0.73028103 0.53059596
0.98820890 0.10246033 0.11881039
0.99303142 0.14133514 0.63998700
0.84230012 0.74135601 0.10897740
0.83872063 0.59824836 0.73706730
0.24297899 0.90244592 0.16882724
0.34068412 0.00382042 0.65821668
0.23022567 0.63441391 0.97499613
0.38562382 0.35506403 0.76256295
0.89710512 0.23642285 0.14929714
0.73533824 0.99616200 0.63939199
0.83886963 0.65662691 0.01144523
0.84090316 0.65693800 0.50986792
0.26789916 0.14963649 0.00921629
0.22340130 0.13576137 0.49134646
0.46367558 0.70659922 0.12416712
0.37730845 0.53396110 0.52738026
0.76236343 0.32547706 0.09685436
0.83351643 0.22691776 0.51895717
0.08477578 0.59557222 0.00733274
0.97044335 0.60637269 0.61233344
0.38160461 0.02262413 0.03026797
0.38891181 0.09494746 0.51718499
0.28931086 0.55566836 0.14936954
0.23869350 0.67439798 0.59932595
0.87895783 0.03841072 0.04942848
0.03444779 0.36815571 0.73232935
0.15977349 0.74792703 0.40835639
0.77047210 0.70198124 0.61347768
0.60351843 0.34846967 0.25787060
0.25337967 0.33668439 0.90299730
0.29214850 0.85110948 0.46005582
0.32780881 0.75764964 0.92844280
0.77053124 0.46615698 0.35719572
0.14295113 0.33442209 0.00107439
0.88862246 0.86641765 0.25892936
0.98993624 0.90583340 0.89876349
0.35551511 0.47361580 0.27964622
0.39039141 0.25599013 0.86719913
0.38649358 0.98492973 0.39468595
0.33136725 0.00407686 0.83322008
0.89922597 0.50157063 0.39684859
0.88736541 0.25088476 0.66721721
0.88466416 0.98223126 0.39394232
0.90951302 0.75069823 0.84595000
0.26752212 0.25416081 0.39806345
0.33281172 0.31473104 0.00533976
0.48374249 0.88448129 0.40278696
0.41622544 0.66408887 0.80205397
0.98012947 0.37509377 0.35874454
0.94276997 0.25648505 0.86432954
0.84517075 0.84136875 0.48816052
0.82738971 0.84792680 0.00989648
0.48926552 0.40207490 0.40935568
0.37998401 0.44760087 0.97049634
0.26930193 0.90786354 0.32601693
0.30289580 0.71553275 0.10617350
0.76063843 0.34074697 0.41912478
0.92623114 0.50846636 0.89979082
0.76303044 0.91882315 0.33121791
0.76599792 0.99370046 0.86868024
0.34110058 0.22570572 0.58240501
0.32491135 0.47385813 0.84351992
0.40063126 0.85819019 0.26174252
0.51225381 0.88049833 0.10617260
0.84012738 0.41528511 0.25914759
0.83211573 0.17394142 0.03303916
0.98495548 0.88427486 0.39542803
0.85957048 0.01800423 0.20952945
0.15032328 0.50137818 0.17814727
0.48065847 0.38405776 0.88259300
0.39265031 0.75887884 0.36669903
0.49421179 0.90666743 0.91003472
0.88333862 0.27415923 0.35522094
0.83724044 0.42167939 0.73976812
0.90565184 0.76063275 0.35182268
0.49636830 0.90890724 0.59305707
0.36525275 0.62600454 0.62841331
0.12731431 0.62310787 0.88098654
0.62799593 0.88296328 0.62232302
0.87793799 0.37925203 0.86960634
0.36185524 0.11792559 0.12307109
0.35830449 0.37350146 0.38146719
0.62593333 0.61750127 0.37799363
0.12804200 0.37225458 0.12927738
0.12789927 0.37838148 0.63159484
0.63616952 0.61944317 0.87868893
0.86111697 0.87606846 0.87883022
0.12941932 0.12613764 0.38346881
0.63011443 0.12385522 0.87709813
0.62880140 0.37604829 0.12493134
0.85991329 0.12580313 0.61958313
0.36755316 0.87772027 0.87374207
0.00134207 0.00193664 0.00130591
0.99254358 0.99091258 0.48887947
0.99893072 0.49551114 0.01045087
0.99697507 0.50945591 0.49094041
0.50753956 0.99643790 0.00679965
0.49063251 0.99878989 0.48995579
0.50147569 0.49287885 0.99855651
0.50267707 0.49291186 0.50856696
0.98628751 0.25955202 0.25948895
0.99703799 0.23934585 0.74246452
0.00341768 0.75366240 0.25355943
0.99754835 0.75968574 0.74464935
0.50644375 0.25496163 0.24779303
0.48202613 0.24976417 0.75502262
0.49159661 0.75353456 0.25064579
0.50379052 0.74092648 0.74098006
0.23906294 0.99680023 0.24670466
0.24698804 0.00687781 0.74791093
0.24712697 0.49745170 0.24512882
0.24875851 0.49423535 0.75670984
0.75203729 0.00531594 0.25289574
0.74730101 0.00133188 0.75305343
0.75846873 0.51441011 0.25060252
0.75594890 0.50481671 0.73988785
0.23190139 0.25822536 0.99244986
0.24174546 0.24846226 0.51118235
0.24130022 0.74267853 0.00756563
0.24007450 0.75245401 0.51015358
0.73491182 0.25143274 0.01028821
0.72321202 0.26008351 0.49645261
0.75390473 0.75396897 0.01792576
0.75359565 0.75634514 0.50816988
0.43209383 0.18404144 0.44261069
0.43881501 0.18555437 0.94662629
0.43845059 0.68627577 0.45141795
0.43877258 0.69156238 0.93328460
0.92192053 0.19943381 0.44017090
0.93122690 0.17265051 0.94847419
0.93812979 0.69240847 0.44305711
0.93777813 0.69209684 0.94574606
0.18537425 0.05886547 0.06060052
0.18625700 0.04283233 0.55909097
0.19443291 0.55339084 0.06147420
0.18173226 0.57124906 0.54896745
0.68644403 0.06442070 0.07538125
0.68325236 0.04814068 0.54626061
0.69282573 0.55201201 0.06171136
0.69178339 0.55938953 0.55541483
0.30213627 0.05693754 0.44416421
0.30026339 0.05376663 0.94507313
0.30163434 0.55834635 0.43523782
0.30702766 0.54416970 0.94418908
0.80600216 0.05753202 0.44135321
0.80181967 0.07024553 0.96014908
0.80182515 0.55930309 0.43521305
0.81303332 0.55486045 0.94724784
0.05472170 0.18319762 0.06153528
0.04484903 0.19403612 0.54591184
0.05231353 0.69676961 0.06340644
0.04808734 0.69149279 0.56581468
0.55620238 0.18979596 0.05884743
0.55238925 0.18310485 0.55189757
0.55597483 0.68581680 0.04636138
0.56612376 0.68970543 0.55540108
0.12145963 0.11171722 0.87316394
0.13299164 0.63151413 0.37842694
0.63338398 0.11624090 0.37479456
0.43703350 0.44648707 0.19578882
0.44039431 0.43572498 0.68964544
0.44419112 0.94435782 0.19177532
0.43616006 0.94412036 0.69035526
0.93342747 0.46233053 0.19454996
0.94606837 0.44187624 0.69095264
0.94685396 0.93948492 0.18621995
0.93623809 0.93977008 0.68612524
0.19575638 0.30294776 0.31193616
0.18338653 0.30122027 0.81314879
0.19738891 0.80894297 0.30969116
0.19155830 0.81190320 0.81440832
0.69653706 0.30892826 0.31647300
0.68032118 0.31357734 0.80391796
0.69018775 0.81445659 0.31224024
0.69130049 0.81144320 0.81228981
0.30733315 0.29953489 0.18500549
0.29640444 0.30083695 0.69434535
0.31368094 0.80621904 0.19296516
0.30614040 0.80217051 0.69758532
0.81226559 0.30907849 0.20040571
0.79377480 0.31686318 0.68875746
0.79983815 0.81749577 0.19141396
0.80555173 0.80656355 0.69269680
0.05538225 0.44803957 0.29905822
0.04991798 0.45089728 0.81497002
0.05605604 0.93281903 0.30923941
0.05306293 0.93760503 0.80193197
0.55734450 0.44170101 0.31502513
0.55839920 0.43285731 0.80519416
0.55597180 0.93849905 0.31538555
0.54819821 0.93515838 0.80585861
0.13392787 0.87172141 0.12527593
0.12706475 0.87289242 0.62556671
0.62551468 0.36704729 0.61977352
0.62701447 0.87854750 0.12496246
0.19209198 0.18390792 0.20423188
0.18546717 0.18223772 0.70348558
0.20105451 0.69079869 0.19074261
0.18819610 0.68629313 0.70600984
0.69351941 0.19246995 0.19869970
0.67992631 0.19547030 0.69274755
0.68518240 0.69805895 0.20210661
0.68825789 0.69190274 0.69714718
0.43816087 0.05566447 0.31025744
0.43761274 0.05758637 0.80930057
0.43783059 0.55298410 0.31474255
0.43314775 0.54367901 0.80736927
0.93586091 0.04661969 0.30813929
0.93560331 0.05376415 0.80217619
0.94476882 0.57396303 0.31415860
0.93866192 0.57020878 0.80086913
0.05977392 0.05916597 0.20380275
0.05657725 0.05274677 0.68705161
0.05471414 0.57346508 0.19384188
0.05595891 0.55795721 0.68655957
0.56227985 0.05756526 0.20388604
0.55707925 0.05607420 0.69387091
0.55795802 0.55618494 0.19916983
0.55817117 0.55118516 0.69430412
0.31626486 0.19152277 0.30960593
0.30411555 0.18822321 0.81713068
0.30938195 0.68942588 0.31223364
0.30191709 0.69318433 0.82338276
0.80905579 0.19165874 0.31458490
0.80452597 0.20004184 0.80245070
0.80996717 0.70124879 0.30978060
0.80383418 0.69410445 0.81350895
0.36462004 0.11780886 0.62753343
0.37976169 0.62560385 0.12515557
0.87352993 0.12142244 0.13719348
0.86426661 0.62839207 0.12528634
0.85986685 0.63149003 0.62371360
0.18273909 0.44235063 0.44343453
0.18624167 0.43481243 0.94291275
0.19671519 0.93256737 0.43738125
0.18551478 0.93534582 0.94749534
0.68789524 0.44179748 0.43687616
0.70260153 0.43690492 0.94004862
0.69668236 0.93224416 0.43288866
0.68994885 0.95214947 0.95070110
0.43873188 0.30047538 0.06027784
0.43303094 0.30116840 0.55499940
0.43994040 0.80180755 0.05213555
0.44665022 0.80563919 0.55660826
0.93219037 0.29560266 0.05403838
0.91903996 0.30523460 0.56283594
0.93463658 0.81013219 0.06238791
0.93459917 0.80823469 0.55997398
0.03628760 0.32146422 0.44883163
0.04432675 0.28864265 0.93631217
0.05808280 0.80626002 0.45139595
0.05203679 0.81201027 0.94679523
0.54658662 0.30010547 0.43590259
0.55205913 0.30682540 0.93890729
0.55944811 0.79737755 0.43326919
0.55896163 0.80783818 0.93582143
0.30431930 0.43190483 0.06206821
0.29321706 0.45609382 0.56297689
0.30074822 0.94198567 0.06435512
0.31044688 0.93250639 0.55466500
0.80867796 0.43526576 0.06252206
0.80589565 0.44416294 0.55378023
0.80321352 0.95071784 0.07176550
0.80662069 0.93938383 0.55654018
0.36589824 0.36870436 0.88341463
0.37097981 0.87268655 0.37234084
0.86467062 0.39018015 0.37484252
0.86702252 0.86720993 0.37398676
0.24189688 0.99621002 0.00362467
0.25035274 0.99095076 0.50065366
0.24517095 0.48796585 0.00354220
0.23970025 0.50691297 0.49512962
0.74249408 0.00734699 0.01384277
0.74827672 0.99426113 0.49274764
0.75382826 0.49784204 0.00406397
0.74545871 0.49939004 0.49568128
0.25574306 0.24773283 0.25145150
0.24426390 0.24331254 0.75851228
0.25518994 0.74951776 0.25181538
0.24772503 0.74967390 0.75839111
0.75181504 0.25015027 0.25662246
0.73990696 0.25404759 0.74803526
0.74817746 0.75663095 0.25252756
0.74695163 0.75112998 0.75401738
0.00101395 0.99480859 0.25157240
0.99463022 0.99767577 0.74513734
0.99733998 0.51534765 0.25199019
0.99633083 0.50635591 0.75117483
0.50027931 0.99824472 0.25601249
0.49644086 0.00064058 0.74922746
0.49960132 0.49911949 0.25517979
0.49824011 0.49198902 0.75024625
0.99193358 0.23227390 0.00288791
0.98041683 0.25627135 0.49936633
0.99237867 0.75212543 0.00281362
0.99412641 0.74962464 0.50449906
0.49782788 0.24602388 0.99914028
0.49165179 0.24300718 0.49993409
0.49943555 0.74977986 0.99261536
0.50356527 0.74739040 0.49955168
Direct configuration=      2
0.11306823 0.21638203 0.27810990
0.08904886 0.14292472 0.76679933
0.23979629 0.65497814 0.44037971
0.07690284 0.65696074 0.74855427
0.64249629 0.02074488 0.28870027
0.57949473 0.24568608 0.84389279
0.75995487 0.60220706 0.15295833
0.76772687 0.49029540 0.85351875
0.12783226 0.27595802 0.50302004
0.15035268 0.00003678 0.84217572
0.22966442 0.41829526 0.32997484
0.35104574 0.51163579 0.71795890
0.64541911 0.23411721 0.40235869
0.73122674 0.24400373 0.89068426
0.50820166 0.37479742 0.60768986
0.59052730 0.74948705 0.84655111
0.15564069 0.99768265 0.33718903
0.21975129 0.10365722 0.80102586
0.10645161 0.51573606 0.39214605
0.22972657 0.60639434 0.77278559
0.61666751 0.02317120 0.44543907
0.50450139 0.09149352 0.90484865
0.67034019 0.66904848 0.49450818
0.53274657 0.62328116 0.96673423
0.99679938 0.10608058 0.40800984
0.10737750 0.10308268 0.98514667
0.01843959 0.65487415 0.36691383
0.15956406 0.76585807 0.92285979
0.60497188 0.15564552 0.26937839
0.66187776 0.08619448 0.74929285
0.49728843 0.59188160 0.40950506
0.75582538 0.77314794 0.90032276
0.23330152 0.10559053 0.29235446
0.00790520 0.10169760 0.88615169
0.23438991 0.58637699 0.31391582
0.10644639 0.84473136 0.73533932
0.74673651 0.08660073 0.33599949
0.68780031 0.14786334 0.99316472
0.76891933 0.77961982 0.39232453
0.72436366 0.64749427 0.98880561
0.24510263 0.07770029 0.15779781
0.18700285 0.20716609 0.90187615
0.10961299 0.65750209 0.26375431
0.95610084 0.70533774 0.14106418
0.51596038 0.11284627 0.39311693
0.83196166 0.91848405 0.74933195
0.74954609 0.60186066 0.32789161
0.66608884 0.58322315 0.74936806
0.15341648 0.49921837 0.83725571
0.09469167 0.61806575 0.48778155
0.22575565 0.85544394 0.03033218
0.11189853 0.93425553 0.52699617
0.65642559 0.34023708 0.98819866
0.73909724 0.34741513 0.58500317
0.61517407 0.71711470 0.29066962
0.65929027 0.92211038 0.75634608
0.26648323 0.23354693 0.10726150
0.20938620 0.26753566 0.62083432
0.15355218 0.75691101 0.09435294
0.26874042 0.89101323 0.76611648
0.83301654 0.33744949 0.98912649
0.60242237 0.29043152 0.70546289
0.59746700 0.85882458 0.23440648
0.59710054 0.75720171 0.64953320
0.02312756 0.38052141 0.02404276
0.27496564 0.36008069 0.49517151
0.01543515 0.86322261 0.12974586
0.23835671 0.84222241 0.60243838
0.59857394 0.49806167 0.89731556
0.66796831 0.42044233 0.72594378
0.65787729 0.76263228 0.10203944
0.74991181 0.83858323 0.59241433
0.02562274 0.37694460 0.20869136
0.89470117 0.39399380 0.48789061
0.14019856 0.98510548 0.15970302
0.01115409 0.86360575 0.63439176
0.48945418 0.34733121 0.15009885
0.60955558 0.48325483 0.59898319
0.65799115 0.85308085 0.01242470
0.45552629 0.85902256 0.77042575
0.25274561 0.40134921 0.16830819
0.02932864 0.46309259 0.60902712
0.09678893 0.91056483 0.02031354
0.15719774 0.97780914 0.66923479
0.72350599 0.46986577 0.14684429
0.63393269 0.35179035 0.50035850
0.60421733 0.98858547 0.11017616
0.65742586 0.82968033 0.49056429
0.49572706 0.14894045 0.14630802
0.21624734 0.38392155 0.73757462
0.11090600 0.85015224 0.23888866
0.13062530 0.78026573 0.55486893
0.64239965 0.51716377 0.27702164
0.64816633 0.24661934 0.58309543
0.72849492 0.91703646 0.16800527
0.83029698 0.08524623 0.74863711
0.65333812 0.24194333 0.09415477
0.38464884 0.14036014 0.73951704
0.46257225 0.54346183 0.12562442
0.19692622 0.49584940 0.64725947
0.89530304 0.14083697 0.24624665
0.70889943 0.14057165 0.47157429
0.95849762 0.55399110 0.12263183
0.78583355 0.53709870 0.63002642
0.35429331 0.02003042 0.22913365
0.25308496 0.09475255 0.65583578
0.38385429 0.61917965 0.01370643
0.49985484 0.63395147 0.63362160
0.75647752 0.09589597 0.17025224
0.90505415 0.00162007 0.58735164
0.86298783 0.57127551 0.22820937
0.89891459 0.73516357 0.65377071
0.41097117 0.25129143 0.34663159
0.48202119 0.12826667 0.63205080
0.39287011 0.63784406 0.24224411
0.35614299 0.73222591 0.53349304
0.98817303 0.10378524 0.11665714
0.99413251 0.14094838 0.63555458
0.82399463 0.73310935 0.09329948
0.83384154 0.59942263 0.73743756
0.24312384 0.90158720 0.16920460
0.34121003 0.00326574 0.65869559
0.25066388 0.65929577 0.92758532
0.38704289 0.36082011 0.76555109
0.89668243 0.23827131 0.14639781
0.73576896 0.99663701 0.63871241
0.88918332 0.61148090 0.01318249
0.83925289 0.65703088 0.50917692
0.32431237 0.16508613 0.98940751
0.21688204 0.13754593 0.49127669
0.45716779 0.71100941 0.12680042
0.37688002 0.52697028 0.52881014
0.75370166 0.33184583 0.09813152
0.83377915 0.22588180 0.51552076
0.09698649 0.60169687 0.00525585
0.96758715 0.60509277 0.60593207
0.38061305 0.01930250 0.03072091
0.38892646 0.09356840 0.51761132
0.29519071 0.54546781 0.14436889
0.23662435 0.66971838 0.59319673
0.87913702 0.04028842 0.04516772
0.02509070 0.36553082 0.73220948
0.15561143 0.74903570 0.40946147
0.76915239 0.70227798 0.61224243
0.60005841 0.34362573 0.25645914
0.25033378 0.33763558 0.91012461
0.29165021 0.85153246 0.45980423
0.34865097 0.77919585 0.96957268
0.77130842 0.46614300 0.35558457
0.13717965 0.27260280 0.02674390
0.88802506 0.86681887 0.25922291
0.98953846 0.90751775 0.89649006
0.35495737 0.46974628 0.27712338
0.38917851 0.25990648 0.86729349
0.38466967 0.98652624 0.39518235
0.33085624 0.00276888 0.83466541
0.89909884 0.50076027 0.39743166
0.89034398 0.24994764 0.66015919
0.88372208 0.98241328 0.39292016
0.90486141 0.75285455 0.84507368
0.25773766 0.25278233 0.39787267
0.33963831 0.32814397 0.00074571
0.48321857 0.88605189 0.40142359
0.40004106 0.65561286 0.76293404
0.97890821 0.37423326 0.35811013
0.90140078 0.24912427 0.84529774
0.84401449 0.84050170 0.48698761
0.82099239 0.84907980 0.01185713
0.48846298 0.40138487 0.40790509
0.38093063 0.45983153 0.96516403
0.26885220 0.90801272 0.32600728
0.29349046 0.70699133 0.10952857
0.76024135 0.34108879 0.41704049
0.95248376 0.48393897 0.87996957
0.76270388 0.91834000 0.32981897
0.75825780 0.00082592 0.86902857
0.34279150 0.22343664 0.57781837
0.29429766 0.46680567 0.85671196
0.40007615 0.85753775 0.26112203
0.51071931 0.88514920 0.10440928
0.83991309 0.41511693 0.25655837
0.83331731 0.17488276 0.02662082
0.98471769 0.88569020 0.39621184
0.85184831 0.01237042 0.18927172
0.15329693 0.50348741 0.17103831
0.48077717 0.38862633 0.88913883
0.39298391 0.75967892 0.36785574
0.49260905 0.90965150 0.91011188
0.88335858 0.27265032 0.35526109
0.83179634 0.42131393 0.73653029
0.90408164 0.76121957 0.35249579
0.49598862 0.91026300 0.59320631
0.36511554 0.62298063 0.62934693
0.12564910 0.62967819 0.87592968
0.62731982 0.88340274 0.62140685
0.86691262 0.37862822 0.86608421
0.36562097 0.12165696 0.12234931
0.35771659 0.37210033 0.38019044
0.62542621 0.61852058 0.37560467
0.12330512 0.37473577 0.12143841
0.12375536 0.37252297 0.63383717
0.63392106 0.62555457 0.87973501
0.85998460 0.87766325 0.88088643
0.12943124 0.12610805 0.37974942
0.63037645 0.12823652 0.87449045
0.62426754 0.37354665 0.12437752
0.85970891 0.12496001 0.61916582
0.36731687 0.87616641 0.87213127
0.00056739 0.00622293 0.99833399
0.99274655 0.99357484 0.48691300
0.99678969 0.51020394 0.00315188
0.99700860 0.51164546 0.49064965
0.50735992 0.99909735 0.00806602
0.49027713 0.99908561 0.48860825
0.50249360 0.49698969 0.99822694
0.50326281 0.49329359 0.50647967
0.98545309 0.25782143 0.25725758
0.99195891 0.23712707 0.74522476
0.00545917 0.75672156 0.25882734
0.99522182 0.76165632 0.74520958
0.50436154 0.24703658 0.24603108
0.47932731 0.25088080 0.75297918
0.49121757 0.75268592 0.25326231
0.50304857 0.73738351 0.74363474
0.23868406 0.99669059 0.24572827
0.24822545 0.00520557 0.74628886
0.24716611 0.49374329 0.24140680
0.24182162 0.49389128 0.75667715
0.75207345 0.00426678 0.25037538
0.74658032 0.00193834 0.75260435
0.75970107 0.51344456 0.24909311
0.75177978 0.50531613 0.74001510
0.24796963 0.25297951 0.99418402
0.24160013 0.24964711 0.51260092
0.24180789 0.74433049 0.00747879
0.23997459 0.75198884 0.50840602
0.74039322 0.25639067 0.00831635
0.72344546 0.26057038 0.49472456
0.74112350 0.76183676 0.01396248
0.75291451 0.75675250 0.50658897
0.43200592 0.18341195 0.44287697
0.43890209 0.18518143 0.94266917
0.43725856 0.68748124 0.45320036
0.44265318 0.69638592 0.93881835
0.92286541 0.19661018 0.43830300
0.93091967 0.18293419 0.94283554
0.93695595 0.69365136 0.44371198
0.94264436 0.69441943 0.94253365
0.18110071 0.05411171 0.06245921
0.18510237 0.04288467 0.55938583
0.19481148 0.55719077 0.06364022
0.17974535 0.56789887 0.55086613
0.68589696 0.06504474 0.07717476
0.68333962 0.04846870 0.54538134
0.69055347 0.55204940 0.06411096
0.69162257 0.55985994 0.55327103
0.30072836 0.05872890 0.44525857
0.30076001 0.05357451 0.94653121
0.30187515 0.55530451 0.43757363
0.30836054 0.55318460 0.94362191
0.80585702 0.05785166 0.44058397
0.79874223 0.07230153 0.96187745
0.80178169 0.55974201 0.43315308
0.80489144 0.55730781 0.94732237
0.05216549 0.18674039 0.05719923
0.04768390 0.19647025 0.54608557
0.05110255 0.69629581 0.06515353
0.04678714 0.69231486 0.56618988
0.55994093 0.18457837 0.05141177
0.55235716 0.18347021 0.55184469
0.55591507 0.69679346 0.05691847
0.56675185 0.69139437 0.55489127
0.12489402 0.11224682 0.87123789
0.13364309 0.63180350 0.37736362
0.63420166 0.11560736 0.37373320
0.43747576 0.44486933 0.19427512
0.43982960 0.43635613 0.68724117
0.44169263 0.94564723 0.19086522
0.43604950 0.94286589 0.69138565
0.93865674 0.46065354 0.19662115
0.94254624 0.44153593 0.68693627
0.94711064 0.94215422 0.18948882
0.93591715 0.94234866 0.68621726
0.19228837 0.30260666 0.30841349
0.18470955 0.29976615 0.81692654
0.19611346 0.81013481 0.31159030
0.19050583 0.81073269 0.81186288
0.69538921 0.30944950 0.31474377
0.67974638 0.31164142 0.80089358
0.69126252 0.81323194 0.30548646
0.68727377 0.81335354 0.80934293
0.31352344 0.30280785 0.19187457
0.29848407 0.30221797 0.69776573
0.31242157 0.80382568 0.19445688
0.30555082 0.80036117 0.69566476
0.81089362 0.30967305 0.19795460
0.79630863 0.31364414 0.68615267
0.80647706 0.81499938 0.18737976
0.80437618 0.80770736 0.69245181
0.05835685 0.44665225 0.30547274
0.04613529 0.45149933 0.81109439
0.05740327 0.93618735 0.31032615
0.05418603 0.93823990 0.80057220
0.55668336 0.43844372 0.31357489
0.55644239 0.43400021 0.80469809
0.55523181 0.94042652 0.31304620
0.54867193 0.93570795 0.80653039
0.13323055 0.87201819 0.12527576
0.12635548 0.87318591 0.62467815
0.62498500 0.36693876 0.61918549
0.62432024 0.87582289 0.12523288
0.19729811 0.18508565 0.19844296
0.18759368 0.18347242 0.70405798
0.19864548 0.69040353 0.19434327
0.18459206 0.68816249 0.69958158
0.69228750 0.19408452 0.19618074
0.68057235 0.19425549 0.68801750
0.69159018 0.69414708 0.19695168
0.68721269 0.69279778 0.69543442
0.43742946 0.05751985 0.30903784
0.43743810 0.05705144 0.81017757
0.43666726 0.54986971 0.31465855
0.43434998 0.54642738 0.80392708
0.93830999 0.05112440 0.31108543
0.93687320 0.05428591 0.80383920
0.94665048 0.57222902 0.31607136
0.93487820 0.56791165 0.79859479
0.05996733 0.06172433 0.20313155
0.05727292 0.05465016 0.68737327
0.05632129 0.57098737 0.19610289
0.05338685 0.55753663 0.68234176
0.56108394 0.05832947 0.20134860
0.55620887 0.05569984 0.69368894
0.55815394 0.55487850 0.19988193
0.56040283 0.54917039 0.69132225
0.31273208 0.19091140 0.31273469
0.30408602 0.18718204 0.81940184
0.30712807 0.68918938 0.31589342
0.30040094 0.68959744 0.81703740
0.80761755 0.19201822 0.31252992
0.79785581 0.19640433 0.80349201
0.81077891 0.70114866 0.30802527
0.80029749 0.69627242 0.81402730
0.36497406 0.11747034 0.62780125
0.37872716 0.62546478 0.12736621
0.87282010 0.12236211 0.13289500
0.87050004 0.62930730 0.12646082
0.85802467 0.63156026 0.62340373
0.18322854 0.43974906 0.44448547
0.19099766 0.44192004 0.94024794
0.19690693 0.93289408 0.43752793
0.18690898 0.93568163 0.94630786
0.68787277 0.44219973 0.43507877
0.69509431 0.44131477 0.93857547
0.69607929 0.93260834 0.43160337
0.69157668 0.95217412 0.95459293
0.43623156 0.29525940 0.06104404
0.43299668 0.30150666 0.55411048
0.43495365 0.80823596 0.05477665
0.44646552 0.80605059 0.55928870
0.93369644 0.30279206 0.05364634
0.91840170 0.30337547 0.55820587
0.93231433 0.80454782 0.06641836
0.93326331 0.80931554 0.56047746
0.03549726 0.32031718 0.44517867
0.05225975 0.29902518 0.94238872
0.05722071 0.80770590 0.45273042
0.05218995 0.81775399 0.95205138
0.54660248 0.29966746 0.43491305
0.55110320 0.30634348 0.94115081
0.55778049 0.79957938 0.43407902
0.55785227 0.81472433 0.94200530
0.30760599 0.44053551 0.05996830
0.29101275 0.45378266 0.56597827
0.29979754 0.94112280 0.06495900
0.31020763 0.93300372 0.55455052
0.80492485 0.43503717 0.06205838
0.80600817 0.44483901 0.55195746
0.80550819 0.95219334 0.07533679
0.80621688 0.93941256 0.55539759
0.36445420 0.37287094 0.88524395
0.37067439 0.87394762 0.37154373
0.86421807 0.38954727 0.37302287
0.86655261 0.86805165 0.37368425
0.24097502 0.99688588 0.00480977
0.24991441 0.99186826 0.50114710
0.24608748 0.49680968 0.00279499
0.23869177 0.50501606 0.49709449
0.74350011 0.00795294 0.01735902
0.74800634 0.99427564 0.49172669
0.74897290 0.49648589 0.00446519
0.74549229 0.49991895 0.49376504
0.25651920 0.24871409 0.25193728
0.24565230 0.24424366 0.76052113
0.25328161 0.74959254 0.25457747
0.24520962 0.74822776 0.75492119
0.75084384 0.25121568 0.25460951
0.73985576 0.25276136 0.74332599
0.75208579 0.75648051 0.24689880
0.74431655 0.75267065 0.75297844
0.00236900 0.99825078 0.25324032
0.99541247 0.99930428 0.74514358
0.00089022 0.51274861 0.25637885
0.99245631 0.50718946 0.74592652
0.49802424 0.99904860 0.25478041
0.49603218 0.00030700 0.74970774
0.49933536 0.49721734 0.25460809
0.49740841 0.49333883 0.74775454
0.99245975 0.24151643 0.99714143
0.98255099 0.25351290 0.49703124
0.99382408 0.75307252 0.00358950
0.99287699 0.75081820 0.50520747
0.49690586 0.24424703 0.00105312
0.49172434 0.24307178 0.49926371
0.49919263 0.75546176 0.99842944
0.50295058 0.74902045 0.50043046
Direct configuration=      3
0.11488122 0.21525821 0.28016354
0.09905257 0.14213083 0.76242382
0.24043549 0.67916123 0.42618572
0.04686301 0.64060115 0.76489173
0.65087275 0.97525130 0.23232808
0.58314310 0.24613813 0.84347140
0.75935439 0.59539251 0.15017184
0.76900659 0.48791973 0.85336344
0.13407253 0.28242979 0.50032261
0.10512318 0.00565879 0.88499391
0.22969740 0.42039652 0.33085971
0.32710848 0.49829633 0.67019492
0.64468298 0.23733254 0.40530465
0.73666143 0.24282734 0.89000957
0.50790690 0.36984576 0.62246983
0.59181791 0.75336015 0.85044864
0.15806385 0.99969052 0.33734779
0.22389536 0.08072906 0.82588382
0.10574667 0.51695507 0.39418603
0.23243602 0.60674695 0.77547148
0.60998813 0.01258772 0.40707673
0.50840349 0.09496597 0.90256905
0.67122641 0.66760852 0.49479185
0.49943239 0.60489191 0.89517808
0.99943626 0.10813418 0.40939130
0.10389713 0.11523773 0.98838146
0.01141512 0.63072263 0.38537528
0.16057673 0.76153676 0.92012175
0.60412656 0.14973814 0.27238738
0.66614584 0.08539755 0.74924316
0.49625835 0.59613711 0.40609998
0.75370635 0.76395982 0.90315270
0.24175479 0.10474581 0.30145711
0.00601484 0.12596140 0.87111416
0.23384024 0.58405932 0.31976822
0.11096505 0.84120653 0.73203388
0.73472450 0.08330783 0.33564644
0.68793744 0.14745658 0.99499827
0.77308712 0.77499173 0.39220494
0.67679260 0.65989573 0.00592584
0.24138186 0.07110595 0.16409221
0.19842201 0.20544846 0.89827360
0.10357911 0.65042186 0.26031731
0.95466372 0.70321223 0.13747651
0.52215990 0.12317174 0.41394318
0.83376499 0.91695989 0.75046925
0.74644871 0.60143701 0.32952942
0.66988940 0.58321338 0.74942980
0.16238300 0.49356940 0.84036037
0.11417864 0.63076563 0.49073635
0.22897445 0.85642920 0.02973808
0.11990048 0.95048149 0.53587918
0.65722616 0.33804844 0.98819018
0.73990406 0.34662021 0.58630931
0.59739653 0.74305908 0.33627391
0.66454542 0.92063165 0.75358739
0.26394979 0.23217147 0.10702134
0.21242588 0.27191040 0.61879990
0.15296047 0.75729898 0.09293262
0.27053650 0.89273181 0.76631929
0.83150118 0.33903576 0.98878581
0.60690507 0.28719203 0.70719203
0.54990645 0.86558662 0.21499025
0.59043972 0.75452777 0.65334061
0.01846078 0.38447796 0.03299787
0.32166099 0.34674824 0.50485762
0.01468765 0.85373882 0.13716805
0.24130645 0.84146167 0.60512319
0.60237943 0.49586541 0.90123413
0.67196597 0.41714401 0.72720101