Li192 P32 S159 Cl33
1.0
20.282700 0.000000 0.000000
0.000000 20.282700 0.000000
0.000000 0.000000 20.282700
Li Cl S P
192 33 159 32
Direct configuration=      1
0.08174076 0.91600000 0.02895670
0.08590817 0.08928088 0.50469993
0.10024836 0.50224883 0.07212473
0.07881709 0.41505517 0.50394816
0.57873617 0.00688485 0.90141631
0.54371682 0.10909035 0.47126834
0.75083877 0.42931611 0.15133618
0.49923976 0.59223932 0.57184023
0.33030334 0.41491017 0.27088548
0.34624289 0.49831357 0.82972546
0.32532604 0.00596350 0.17199926
0.30187670 0.90490966 0.75853683
0.75290365 0.58813363 0.14903923
0.86393511 0.47797250 0.77918515
0.82670889 0.00504633 0.16566414
0.78670200 0.89331432 0.79627481
0.07079906 0.21445912 0.16663486
-0.00304940 0.33434670 0.65900275
0.99808844 0.84387258 0.17010250
0.09945892 0.66725853 0.76410142
0.42931755 0.31646574 0.18881484
0.43570106 0.23988115 0.66226682
0.47861274 0.66093617 0.18434847
0.47861346 0.75055436 0.64680570
0.16792936 0.58118155 0.23110866
0.16712249 0.48496795 0.67035173
0.16361145 0.00811365 0.34202544
0.16708540 0.09821452 0.75529504
0.63736202 0.44026584 0.23893354
0.64202265 0.47590943 0.70766577
0.66835746 0.00948956 0.34537247
0.73102497 0.08850414 0.67655386
0.03335711 0.35842961 0.22431923
0.01681236 0.17733592 0.83895072
0.04681726 0.70768237 0.35443084
0.92698085 0.83082140 0.75729785
0.54625242 0.14107242 0.28940529
0.58117678 0.24303353 0.85180415
0.50743978 0.84165919 0.33735937
0.54471518 0.72311137 0.87040606
0.91836958 0.41791780 0.48311444
0.06954987 0.42362240 0.93569941
0.08134061 0.91815764 0.51063190
0.90935994 0.91756249 0.00248537
0.61424533 0.47471715 0.52725102
0.51464618 0.44705985 0.10466135
0.59978695 0.97398679 0.53934640
0.60069250 0.95645369 0.03928283
0.95351384 0.14157799 0.22410285
0.99572370 0.16152426 0.66805393
0.89672279 0.73754577 0.28180414
0.02236081 0.78909332 0.63672656
0.48831052 0.15582034 0.14709111
0.52192682 0.13850706 0.76546886
0.39136609 0.77731853 0.28234777
0.58942192 0.65196430 0.75255026
0.25926083 0.16243643 0.58002192
0.26058827 0.15732142 0.07933064
0.25419066 0.65598876 0.58893281
0.14995974 0.77124508 0.03677089
0.71646023 0.13870958 0.47495259
0.66742630 0.34482792 0.00008754
0.83053781 0.74440355 0.58968267
0.81259769 0.80979634 0.08111858
0.03052267 0.22014425 0.35233636
0.98491097 0.34006196 0.82442528
0.11160600 0.77392333 0.21290128
-0.00244504 0.75833203 0.86443676
0.46791014 0.27458122 0.34681283
0.46407892 0.36324824 0.77668445
0.61280606 0.78248344 0.22332990
0.46038071 0.84668352 0.78668119
0.48253984 0.98248095 0.38991332
0.47786179 0.88250741 0.96694286
0.53053246 0.54805200 0.40008289
0.55468742 0.51470739 0.88353955
0.02102403 0.03311305 0.39028989
0.00706295 0.91933545 0.90183246
0.02516802 0.52404503 0.38323063
0.02287008 0.58503659 0.92950274
0.40609644 -0.00844913 0.91441533
0.41815338 0.91108965 0.49283030
0.41896671 0.41394226 0.97386539
0.47418149 0.40903493 0.42448155
0.92879234 0.06181345 0.93328191
0.92020788 0.91997849 0.48634909
0.90878515 0.48305965 0.92901950
0.92080583 0.58995054 0.51524809
0.51994718 0.11335085 0.97676569
0.39965206 0.08487004 0.50117543
0.58625059 0.59591910 0.00530491
0.38771493 0.52653513 0.51257141
0.08828470 0.07247939 -0.01713610
0.91082339 0.08637389 0.50648437
0.91923005 0.51404119 0.08370682
0.08615380 0.58861116 0.49958088
0.15183006 0.99577797 0.16752459
0.15322148 0.97090051 0.67887294
0.29664387 0.51101631 0.13728172
0.33191039 0.51639476 0.66013096
0.65859844 -0.02072470 0.18419379
0.75371383 0.90849481 0.65621536
0.84829934 0.56292389 0.24423456
0.75943419 0.41335692 0.65554771
0.33400906 0.98810810 0.33033625
0.34045983 0.07691355 0.75438316
0.21324209 0.51477666 0.35887349
0.17242766 0.49931078 0.83395212
0.83804219 0.99842183 0.34105281
0.73626523 0.03803681 0.85143508
0.73158689 0.55665107 0.35793378
0.74034654 0.57241686 0.82636024
0.21965546 0.31257030 0.09351744
0.35924943 0.26781137 0.46186515
0.27034401 0.66437453 0.08582287
0.26180654 0.82638968 0.59054959
0.83347370 0.17021123 0.01823735
0.82223132 0.25244574 0.57644131
0.69892872 0.82432883 0.93723812
0.81705804 0.68888534 0.43525558
0.24962378 0.16041319 0.91213380
0.13824824 0.27130436 0.52400414
0.24150325 0.83271190 0.92106566
0.23184011 0.66387844 0.41815712
0.73097039 0.27844388 0.11096708
0.65631946 0.25317773 0.40574816
0.84490356 0.76157828 0.91706423
0.68383666 0.67684587 0.56120067
0.39462908 0.16210127 0.24654439
0.41330150 0.24850273 0.84195793
0.50026993 0.84259313 0.16280930
0.42468059 0.67136286 0.77621879
0.90515315 0.24897334 0.15438103
0.88743912 0.23802289 0.74806237
-0.01062453 0.84997913 0.33611053
0.10243991 0.83244782 0.74824388
0.96991459 0.03593879 0.10055317
0.97573194 0.01728267 0.61241621
0.00574913 0.39833823 0.07664357
0.01706622 0.48706447 0.61243993
0.42830900 0.00425213 0.07843205
0.45856420 0.01934847 0.61526217
0.40877754 0.58655062 0.01379134
0.49244332 0.41229415 0.58660120
0.23149201 0.11413790 0.24368721
0.28723308 0.01954245 0.63699667
0.33768085 0.58778787 0.25164310
0.23989940 0.61062076 0.77799664
0.75774828 0.11403644 0.24594885
0.86506073 0.03169871 0.72549418
0.64907468 0.59040506 0.24855925
0.77535881 0.58114878 0.66634185
0.89291428 0.29567919 0.29068445
0.11495427 0.27891922 0.72757265
-0.00358519 0.66542050 0.18504340
0.96379161 0.65201456 0.70056762
0.58768911 0.26708559 0.17660233
0.59801898 0.29945679 0.71466642
0.52216042 0.68244537 0.33454866
0.61354611 0.79550142 0.71709834
0.26009635 0.33372936 0.91607308
0.24462319 0.33302919 0.40805500
0.35943367 0.75461928 0.93053273
0.24197160 0.82576931 0.42022717
0.83414747 0.33708347 0.98136972
0.76357196 0.36446761 0.46624929
0.83673007 0.65654314 0.02182712
0.78734686 0.85475067 0.46030032
0.17479012 0.41869373 0.22870515
0.28461651 0.38849780 0.75997788
0.22412641 0.88722728 0.23385543
0.20772099 0.00463218 0.85885096
0.77341839 0.41334492 0.31260233
0.75010227 0.40912218 0.83093531
0.77931958 0.88401857 0.27626295
0.63749733 0.96464772 0.72289235
0.13674684 0.22894459 0.97155071
0.28526588 0.32514691 0.57778099
0.31422866 0.81709383 0.07398088
0.13720004 0.76623756 0.52672203
0.66974652 0.16086095 0.00262956
0.65777766 0.26991776 0.57245149
0.65960319 0.75696474 0.07124630
0.65906774 0.82905607 0.52363261
0.22866954 0.16187382 0.41489923
0.35994112 0.26372186 0.02167162
0.36386899 0.71166065 0.50862149
0.23483244 0.65125393 0.93194576
0.83387316 0.25005862 0.42029465
0.74803198 0.23266358 0.88639670
0.66895576 0.73099221 0.40839463
0.72691467 0.66669533 0.92441110
0.50121196 0.50654570 -0.00424390
0.11737135 0.11329319 0.38839966
0.13526907 0.12480833 0.87853521
0.12413722 0.61495502 0.38509049
0.14104113 0.61339978 0.86390712
0.62613242 0.12616358 0.38408125
0.61274645 0.12833239 0.89480359
0.62529200 0.62388144 0.36096140
0.62397345 0.62044100 0.87771709
0.37293346 0.35365326 0.37586177
0.37460670 0.37457103 0.86497028
0.39915748 0.89024801 0.37472547
0.38731627 0.86803151 0.88504297
0.85811116 0.36445159 0.38408873
0.86869566 0.38689063 0.86877917
0.87170404 0.88592455 0.37650156
0.89607464 0.86140905 0.87236837
0.37190327 0.11472444 0.13455564
0.36691897 0.10847864 0.62064358
0.37082680 0.61261775 0.12637835
0.37461472 0.61625959 0.59970182
0.87642851 0.12578556 0.13148496
0.89410285 0.10831422 0.62834432
0.86699606 0.61103796 0.12898639
0.87457055 0.63526150 0.62244916
0.11727360 0.38088417 0.12513599
0.10228626 0.38379351 0.61978765
0.11980140 0.87609682 0.13783282
0.12413671 0.86277319 0.61980120
0.64469304 0.36788452 0.12576648
0.62680789 0.38164478 0.62386191
0.61780414 0.86941106 0.13185051
0.63840695 0.88205039 0.63077818
0.07088475 0.45178041 0.29358082
0.07118009 0.43262336 0.81125060
0.05594177 0.94847295 0.30647295
0.07675758 0.94297843 0.80737328
0.54522759 0.44694575 0.32206148
0.56089525 0.43771548 0.79156555
0.56080249 0.94677891 0.30268769
0.55379043 0.93165759 0.80826815
0.44178260 0.06128528 0.30707601
0.44538078 0.05972400 0.81759828
0.45156569 0.57948016 0.29498697
0.45388844 0.55786007 0.81373771
0.93732161 0.06290862 0.30963788
0.95458205 0.06374729 0.81056057
0.95773244 0.57034923 0.29156616
0.95197732 0.55395942 0.82363015
0.42926766 0.44384982 0.19864819
0.43275499 0.44655738 0.69032502
0.43710707 0.94576658 0.18834743
0.42545931 0.93858657 0.70501814
0.94991310 0.44372696 0.18220276
0.94775609 0.44245555 0.70300705
0.93619035 0.94807342 0.18890213
0.94741340 0.94143340 0.70155374
0.04988779 0.06653301 0.18911832
0.06509529 0.05618475 0.68935633
0.06531812 0.56502414 0.16986170
0.06305855 0.55926373 0.70169142
0.55883740 0.06258432 0.18941278
0.54955075 0.04783491 0.69188591
0.56386516 0.53119295 0.18208137
0.55674758 0.55945636 0.68078876
0.29993382 0.05508190 0.43358910
0.29869435 0.04889302 0.93703204
0.29356579 0.55744732 0.44197643
0.31761519 0.55645335 0.93338498
0.80388949 0.05886132 0.44351716
0.80024629 0.06866970 0.95132736
0.81992117 0.56571845 0.44576778
0.80555740 0.56498523 0.93488796
0.31951256 0.43349837 0.04472239
0.30792831 0.44528700 0.56115608
0.31508819 0.94501875 0.06542872
0.30994498 0.93654433 0.55138147
0.81283418 0.44403549 0.04570824
0.81496954 0.43818319 0.55000211
0.80700273 0.94093107 0.06073370
0.81511521 0.93623771 0.55444415
0.18458384 0.43620482 0.44775151
0.19765421 0.43821702 0.93473606
0.18503289 0.93504231 0.44050396
0.18504321 0.93292355 0.95807060
0.69651913 0.46111599 0.43585901
0.68895703 0.44612065 0.93180337
0.68903352 0.93663899 0.44944492
0.69096673 0.94849304 0.93678813
0.18957846 0.05736808 0.06309178
0.19358882 0.05067042 0.56142332
0.20790557 0.55592390 0.05386410
0.18342582 0.55410460 0.56740983
0.68242336 0.04850884 0.06781570
0.69178708 0.05414913 0.56246171
0.68961765 0.55592785 0.05377713
0.70023126 0.55514981 0.56964648
0.45383581 0.33031123 0.06277348
0.43511193 0.30577261 0.55466829
0.44233831 0.80908640 0.05933007
0.43907330 0.80064573 0.54488553
0.93404916 0.30315029 0.05016014
0.93080384 0.30996904 0.55637031
0.93576836 0.81866141 0.06663939
0.93226871 0.81142222 0.55247487
0.05335872 0.30675927 0.44384202
0.04839245 0.29708897 0.92726068
0.05536074 0.80867361 0.44165634
0.06018031 0.81295699 0.95524644
0.55035965 0.31162450 0.43538075
0.56309426 0.32055237 0.94205283
0.57048363 0.80218559 0.43969423
0.56996706 0.80092212 0.95886038
0.44547878 0.18696079 0.43865851
0.44189181 0.20609393 0.95523763
0.46075513 0.67634698 0.44032165
0.45640107 0.68310923 0.94914978
0.94006859 0.18962182 0.44038870
0.92731650 0.18757205 0.93302568
0.94249897 0.68983824 0.43259088
0.94492077 0.69409380 0.95373804
0.05222010 0.18323154 0.04557004
0.05311102 0.19549649 0.56399564
0.05634112 0.70521245 0.07730069
0.04684143 0.69481524 0.56085627
0.56379519 0.20200290 0.06275467
0.55951538 0.19617620 0.55732038
0.55658341 0.68720332 0.08033583
0.56194895 0.69960391 0.57135785
0.30359222 0.32102356 0.18978077
0.32704919 0.29871899 0.69128708
0.31052219 0.81024359 0.20047704
0.32986026 0.80116195 0.69315921
0.80895589 0.32355465 0.19801451
0.80596677 0.30260958 0.68742316
0.82129975 0.79388185 0.20510540
0.81626702 0.80592581 0.70409416
0.29375728 0.19498686 0.30548041
0.31461740 0.18281082 0.80892598
0.30966555 0.69020245 0.31398938
0.31403117 0.69531035 0.82183528
0.80724209 0.20445111 0.30983448
0.79314642 0.17572252 0.78992525
0.80124584 0.66881596 0.31005152
0.80357045 0.68619227 0.82243142
0.19212590 0.20461912 0.17580303
0.19744068 0.19462546 0.68700103
0.19726752 0.69016572 0.18578403
0.20272058 0.69440774 0.69975654
0.69181766 0.20308260 0.19611821
0.67306218 0.20080541 0.67770007
0.69026249 0.69042691 0.18593157
0.69475797 0.69167860 0.69780171
0.18149982 0.31601111 0.30118151
0.20612273 0.30828595 0.80350526
0.18675169 0.79905430 0.30804905
0.21106927 0.82518186 0.80359504
0.68736930 0.32543511 0.30912344
0.68768435 0.30285313 0.80552649
0.69664668 0.79931681 0.30993801
0.69379164 0.81273938 0.81147591
0.99865831 0.99298469 0.99414964
0.00052606 0.00494776 0.50064271
0.00382148 0.49143054 0.00134914
0.00177489 0.50376187 0.49780871
0.50095858 -0.00344129 0.98868816
0.49108177 0.00715476 0.50311338
0.50063807 0.49492781 0.50295255
0.98892547 0.25074970 0.24113307
0.00157301 0.25186772 0.74567451
0.00511761 0.76147026 0.25680774
0.01494481 0.75114949 0.74915198
0.49054214 0.23247510 0.23843628
0.50099733 0.25228012 0.76248293
0.50153528 0.76064042 0.25082798
0.51412476 0.74355470 0.75831787
0.24047565 0.00046111 0.25178407
0.24496649 0.00808106 0.74534108
0.25409318 0.50444353 0.24882524
0.25666859 0.49996955 0.75019316
0.75127380 0.99819487 0.25804165
0.75234855 -0.00706615 0.74332917
0.74045971 0.50749883 0.24406557
0.75348544 0.49167845 0.74414266
0.24966855 0.24540039 0.99742457
0.24929764 0.24873484 0.49610804
0.25960008 0.74679890 -0.00102803
0.24908323 0.74382958 0.50552848
0.74818058 0.25352340 -0.00083484
0.74102025 0.25239630 0.49162508
0.75869041 0.74754475 0.00048942
0.74607915 0.75215837 0.50024803
0.99479992 0.00479609 0.24889798
0.01092321 -0.00035568 0.75593840
0.01110014 0.50729653 0.23322704
0.00948670 0.49685126 0.76277953
0.49869126 0.00322916 0.24461325
0.49239362 0.99351003 0.75629523
0.49628707 0.49955001 0.25135070
0.49975147 0.50238305 0.74212133
0.24859356 -0.00448627 0.00736364
0.24706700 0.99391737 0.49544790
0.25995406 0.49525142 -0.00865895
0.24128025 0.49783505 0.50537212
0.74640987 0.00111354 0.00575385
0.75160416 0.99643195 0.50397542
0.74773947 0.50172084 0.99182268
0.75915357 0.50774719 0.50144172
0.99002443 0.24243464 0.99061125
0.99292070 0.25024010 0.50233019
-0.00198944 0.75723684 0.01544266
0.99103798 0.75093577 0.49648606
0.50836524 0.26536482 0.00451931
0.49998906 0.25029778 0.49842149
0.50544285 0.74443133 0.01426424
0.50911985 0.74486179 0.49648530
0.24356728 0.26067883 0.24549244
0.26184639 0.24431831 0.74776875
0.25183733 0.74490864 0.25171465
0.26461567 0.75453953 0.75388305
0.74667740 0.26452077 0.25535081
0.73963908 0.24474326 0.73863850
0.75214352 0.73718030 0.25231970
0.75289891 0.74743752 0.76032906
Direct configuration=      2
0.01001669 0.92382449 0.08854398
0.06607577 0.09231778 0.47591323
0.09469206 0.49126190 0.07444161
0.08972142 0.50826580 0.41925105
0.57915043 -0.00180964 0.92183191
0.59501279 0.08609653 0.49758869
0.75083370 0.39752637 0.16677018
0.48475308 0.59445628 0.58094165
0.36595826 0.48392505 0.29208510
0.35044466 0.50184092 0.83410589
0.24805061 0.90391562 0.17431522
0.33315048 0.91445990 0.75951144
0.78845556 0.53686835 0.14369611
0.86610815 0.47072088 0.77842436
0.84246328 0.04057394 0.20613920
0.75415413 0.91537114 0.83259626
0.07522609 0.15989335 0.24447196
0.93179865 0.31136692 0.69020199
0.93181282 0.81431074 0.18820333
0.08449657 0.66518711 0.75220407
0.49838987 0.34274500 0.16563564
0.49013680 0.21914848 0.64246642
0.42945874 0.72530984 0.15393296
0.47632589 0.73953245 0.63875366
0.14451171 0.51119482 0.24295194
0.15464785 0.46260273 0.71917177
0.21928454 0.11201318 0.27702813
0.18616105 0.07516480 0.68318836
0.63976105 0.47294020 0.20265236
0.64269352 0.47762675 0.72992238
0.73197448 0.02337911 0.36127717
0.75669994 0.09134508 0.66898718
0.08059659 0.33797107 0.24446777
0.08304158 0.16137227 0.78033519
0.03195644 0.67038758 0.34017040
0.91871480 0.83741768 0.75025414
0.51269142 0.17486853 0.33245547
0.53622288 0.23669899 0.86793981
0.55703143 0.81726703 0.32246096
0.52807717 0.72328589 0.85937554
0.95766497 0.38891918 0.46151611
0.03060578 0.50646605 0.89598814
0.08507574 0.91078364 0.48981308
0.88198244 0.98440954 0.99153290
0.60119482 0.49015539 0.58203884
0.47038504 0.54227272 0.12607650
0.59214350 0.92557085 0.52353827
0.56843625 0.97927596 0.08396907
0.90855421 0.17507232 0.24035375
0.98604607 0.16554127 0.65986560
0.90146543 0.74518017 0.32871846
0.97257132 0.72758790 0.63466559
0.49281886 0.15724674 0.16858821
0.59293541 0.16831667 0.75704759
0.41710796 0.84371895 0.25957286
0.58824875 0.65681493 0.74677800
0.21707922 0.29328597 0.61696060
0.26115017 0.15264495 0.09137755
0.32903301 0.73983988 0.58247414
0.15608120 0.84512758 0.01638238
0.66377171 0.23431909 0.41732904
0.67014060 0.32346137 0.01905328
0.73614473 0.80000635 0.59690737
0.80964836 0.81198760 0.06841972
0.02736099 0.22039154 0.36178294
0.98909215 0.33041816 0.83593706
0.10595118 0.78245651 0.21294811
0.97343667 0.76653499 0.86091178
0.48158105 0.33644195 0.32884575
0.45269282 0.35738541 0.78025254
0.58000330 0.67139007 0.26424535
0.47001792 0.85547297 0.78106477
0.52930103 0.02870103 0.38665602
0.47552394 0.88016690 0.97482991
0.52973427 0.59368875 0.42895540
0.60299660 0.46251088 0.03572693
0.95436483 0.97920384 0.39202616
0.99102070 0.91631969 0.91141677
0.94089165 0.55761638 0.44628975
0.97543496 0.60689849 0.02360836
0.41005484 -0.00853954 0.91106882
0.45325422 0.90260199 0.46474694
0.41944138 0.40902412 0.97887514
0.57217158 0.42805005 0.44214752
0.99518314 0.08512041 0.91705064
0.93318265 0.92673408 0.56132632
0.88999466 0.46216893 0.96401625
0.95506588 0.53393268 0.60298895
0.48275009 0.10974742 0.00157071
0.41175219 0.08157707 0.49633752
0.52521909 0.57658922 0.90734396
0.41153733 0.49035831 0.44151323
0.10831975 0.02353235 0.97091146
0.91808532 0.08076051 0.51709768
0.93324639 0.49760482 0.10694238
0.10738806 0.49913444 0.57237970
0.15229413 -0.00176001 0.16238381
0.22860684 0.91559180 0.65057478
0.27640788 0.59049492 0.17540220
0.31358983 0.51213938 0.65490426
0.71390988 0.97631544 0.13652256
0.75240757 0.91789928 0.66855756
0.76424959 0.40117596 0.33223249
0.75589286 0.41923003 0.66122422
0.26537315 0.91720054 0.33053914
0.30205849 0.06202850 0.81890117
0.25023548 0.41514504 0.33759295
0.20434559 0.52088890 0.86265461
0.81725060 0.90776598 0.27117433
0.73218058 0.08420962 0.83223407
0.85525083 0.51864478 0.28612913
0.73863029 0.58262910 0.83720188
0.15377169 0.26721179 0.08933259
0.34561485 0.22828991 0.58703186
0.18149618 0.68472849 0.06314308
0.27827177 0.86434441 0.47695832
0.82537349 0.14603893 0.00517170
0.76904083 0.13415965 0.51590818
0.66845745 0.83753283 0.01546387
0.84914455 0.67753468 0.51935546
0.31248465 0.18389683 0.94404454
0.17201302 0.32265184 0.46816882
0.26851579 0.83765570 0.90377689
0.22395168 0.64007079 0.48531883
0.78378710 0.22380916 0.11472417
0.66899376 0.26761156 0.58195688
0.82541157 0.76513497 0.90959246
0.67545441 0.67662715 0.54411749
0.38559642 0.23438063 0.22382217
0.41708792 0.18497502 0.77894176
0.57455929 0.77720159 0.15828879
0.41563996 0.67332386 0.74831111
0.00358940 0.27179448 0.13748522
0.92333782 0.18368151 0.81052494
-0.00062140 0.83925858 0.33106340
0.08083800 0.83261019 0.73087005
0.97917220 0.08459158 0.08256325
0.06764895 0.99397944 0.59958361
0.02517495 0.38025213 0.01883591
0.01627300 0.39580393 0.58883459
0.40545782 0.00390101 0.08298273
0.48457128 0.02973602 0.60986446
0.39606312 0.59429993 0.01005690
0.45510281 0.42923237 0.57505645
0.34863282 0.03749915 0.22694771
0.33940001 0.02433376 0.65797001
0.24371847 0.58894995 0.33706264
0.23293378 0.61656798 0.75701198
0.66271983 0.08702747 0.24662237
0.85822513 0.00467215 0.74653955
0.71510542 0.60922435 0.26217145
0.77038036 0.58466643 0.67047914
0.91570077 0.33079920 0.27591256
0.10356916 0.30156402 0.72899312
0.98327068 0.66105173 0.17848642
0.91526809 0.65864348 0.74806179
0.61252434 0.27365243 0.23043892
0.59195474 0.33388772 0.73455906
0.43411548 0.68290700 0.30901740
0.61269688 0.79715168 0.71644893
0.23402379 0.33350028 0.93173681
0.31871699 0.21229623 0.42021906
0.25721846 0.66806922 0.91120602
0.17033982 0.74932264 0.40428557
0.84442894 0.29106378 0.95911803
0.77937763 0.35994849 0.48242410
0.82581142 0.65544698 0.01456664
0.83711492 0.82822137 0.47305371
0.27247599 0.43222996 0.16680524
0.28961193 0.38952982 0.77486692
0.14698374 0.00726857 0.33190644
0.17985530 0.95356868 0.81311815
0.66741471 0.50805017 0.34429438
0.75101556 0.41324102 0.84226145
0.65689325 0.91483911 0.24570179
0.63247554 0.97446622 0.72307678
0.13691526 0.19886914 0.96028561
0.34252637 0.34320176 0.48523693
0.31301841 0.79899853 0.05435520
0.15995035 0.76814839 0.57478220
0.65417614 0.16229522 0.00050643
0.83231131 0.24311945 0.58576809
0.67774331 0.67666900 0.06307697
0.68337246 0.81482814 0.43420042
0.21637133 0.15504992 0.50366798
0.31395555 0.30640727 0.06659192
0.33893855 0.75018861 0.41548631
0.14428762 0.74523605 0.89999649
0.83854005 0.24395071 0.41550297
0.71717715 0.22714657 0.88860895
0.74279734 0.66641949 0.40730499
0.67228043 0.73288178 0.90711769
0.49285629 0.50621923 0.00943701
0.11596630 0.12312912 0.35563385
0.10525343 0.11335006 0.88689580
0.13921880 0.62588672 0.38666172
0.14759527 0.63065910 0.85463747
0.61844652 0.11864341 0.37687434
0.62953441 0.14257531 0.87493050
0.63709127 0.61966993 0.36235295
0.62277467 0.63431649 0.86094758
0.37501241 0.39092717 0.37618014
0.37229964 0.38963017 0.86664711
0.36314652 0.86592194 0.38173109
0.37848364 0.88369382 0.86568384
0.86501163 0.36047188 0.38520621
0.87183209 0.38263104 0.87399730
0.88463622 0.86370113 0.36535174
0.88715918 0.85981524 0.86509502
0.37494569 0.11919823 0.13411901
0.39640959 0.12250929 0.61415934
0.38214150 0.61875169 0.12269009
0.39228001 0.64888725 0.63454697
0.86896120 0.12849607 0.12293050
0.86541168 0.13114502 0.61433336
0.88303782 0.60855375 0.11354434
0.88537039 0.62872440 0.63147090
0.09222822 0.36336027 0.12167965
0.12736378 0.37755093 0.63431468
0.12647974 0.88166253 0.12679750
0.11997005 0.88166601 0.61488497
0.63036420 0.37971525 0.13012826
0.64033998 0.38809386 0.63728612
0.62840416 0.88225978 0.12512554
0.64330483 0.87994543 0.63612924
0.06786655 0.44567142 0.30838646
0.06606155 0.43195280 0.80412001
0.04413642 0.94743637 0.30821147
0.05914050 0.93552960 0.80693287
0.57181908 0.43693598 0.31058392
0.55158735 0.43831183 0.79996504
0.55436928 0.94332570 0.30613438
0.54853550 0.94623867 0.81270589
0.44837151 0.06862930 0.30295501
0.43389592 0.06818987 0.81837939
0.45518049 0.55737532 0.33145213
0.45057622 0.56768708 0.80847484
0.92673165 0.06186117 0.29713282
0.94081805 0.05375688 0.81293750
0.95790257 0.56987590 0.31978446
0.95440921 0.55140908 0.80855150
0.44548189 0.45002106 0.20599950
0.42710410 0.44973957 0.69289868
0.43184255 0.94839592 0.19231971
0.43556926 0.95203690 0.69555769
0.92597798 0.44444436 0.21856866
0.94551527 0.43993498 0.68702057
0.92807328 0.94338404 0.18560915
0.94410429 0.94504174 0.69028346
0.04764399 0.05676395 0.18220601
0.05884899 0.06588478 0.69738794
0.04798372 0.55197966 0.18325579
0.06782160 0.55064789 0.68672453
0.56039582 0.05417899 0.18171136
0.55354625 0.06563983 0.70079695
0.56239591 0.56379688 0.20363676
0.55843373 0.55560906 0.68282733
0.29405653 0.07778681 0.44663031
0.31397549 0.05474847 0.94706008
0.31043048 0.56105626 0.43866393
0.30276526 0.55705256 0.94153365
0.81558505 0.04421302 0.44884496
0.79662075 0.04923844 0.93475939
0.81467088 0.57089983 0.44508354
0.80406073 0.55274702 0.94524650
0.31815150 0.43682083 0.05262500
0.32579088 0.43993352 0.55180654
0.30638385 0.93340045 0.06177814
0.30319964 0.95405162 0.55689882
0.81393931 0.44203744 0.06637093
0.81993688 0.44709767 0.55610282
0.79305603 0.93906800 0.05533856
0.80753930 0.91998361 0.55998760
0.19422232 0.44233538 0.44617140
0.18173244 0.44462004 0.95432396
0.19322789 0.94536527 0.43542757
0.19346835 0.93816078 0.94035384
0.70240941 0.44683126 0.44175221
0.68976397 0.43302572 0.95459960
0.68861289 0.94103759 0.44404895
0.68146715 0.93001220 0.93137307
0.19046037 0.05484309 0.05616884
0.17103563 0.05881053 0.55506399
0.20185964 0.55272484 0.07670760
0.21270589 0.55393159 0.56984408
0.67051805 0.04824394 0.04636015
0.69852527 0.04930068 0.56601566
0.68979820 0.54961075 0.07053885
0.70021762 0.55982140 0.56676404
0.43792480 0.31821556 0.06323644
0.44229443 0.30300427 0.55602396
0.43975869 0.79800116 0.05438473
0.43348288 0.80883928 0.54831907
0.93149755 0.30669674 0.04530219
0.93843174 0.30525926 0.56129995
0.93655593 0.82301272 0.06496689
0.93430712 0.80259238 0.54584751
0.05160855 0.30574368 0.44520076
0.05367363 0.29521590 0.93393922
0.06123922 0.80678987 0.43144475
0.05044367 0.80970317 0.94748473
0.55437577 0.30566281 0.42699822
0.56185292 0.31574970 0.95535002
0.55614501 0.82447121 0.44545648
0.56422598 0.79628540 0.94905459
0.44179438 0.18754095 0.43568454
0.44181324 0.20436101 0.94016691
0.45006204 0.69021755 0.43305783
0.45507009 0.67465315 0.94142230
0.94456838 0.18273203 0.44676389
0.92555814 0.18523404 0.93743455
0.94614353 0.68690740 0.43301299
0.93040573 0.69737653 0.95330315
0.04731519 0.18799858 0.05498285
0.06017730 0.18663308 0.56300427
0.04680930 0.69495809 0.07021239
0.05911154 0.69685714 0.55540038
0.54908050 0.19087602 0.06378574
0.56564870 0.19661594 0.54981683
0.55505271 0.68469662 0.07600227
0.55546762 0.69666533 0.55645427
0.30231206 0.31483513 0.18925557
0.31395428 0.29414020 0.69689585
0.32087856 0.80304944 0.18654331
0.30264198 0.81987575 0.68425979
0.81615635 0.30346494 0.20443322
0.80982487 0.30934731 0.68671182
0.80242990 0.81468434 0.19311474
0.81343948 0.80884756 0.69230294
0.30159486 0.19613775 0.30063699
0.30328039 0.18327636 0.81961203
0.31125257 0.68912797 0.30842389
0.30588431 0.70367086 0.80220762
0.80911653 0.18126640 0.31552148
0.80026542 0.18844649 0.80566142
0.79744073 0.68834652 0.30103254
0.80963749 0.68728394 0.80896163
0.18374741 0.19671826 0.18884054
0.18035206 0.19924899 0.70177755
0.19659487 0.68861963 0.19042296
0.18560518 0.70453881 0.68651582
0.69540180 0.19454206 0.19499273
0.68912894 0.19668391 0.68371871
0.67758899 0.70030830 0.19099711
0.69435531 0.69683311 0.68689861
0.18348877 0.31542389 0.30735942
0.19944152 0.31514964 0.81293379
0.19764017 0.81216461 0.29654210
0.18736765 0.82014498 0.80602811
0.69334930 0.30343735 0.31721245
0.69164128 0.31067558 0.80418085
0.68691207 0.81542925 0.30992815
0.69601399 0.80711643 0.81001733
0.99535990 -0.00019226 0.99745851
0.00167145 0.99643118 0.50079851
-0.00354062 0.49312165 0.00622864
0.01002451 0.48590288 0.50834420
0.48967035 0.99359099 0.99790770
0.50597676 0.00561732 0.49885711
0.51141175 0.50335808 0.50580441
-0.00052083 0.25059068 0.25178239
0.00126588 0.24478844 0.75172841
-0.00194144 0.74908006 0.25636665
-0.00276029 0.74650248 0.74862095
0.49854984 0.25389749 0.24350586
0.50825994 0.25248157 0.75417517
0.49790171 0.75476158 0.24661999
0.51049308 0.74895255 0.74914165
0.23558206 -0.00125785 0.24894559
0.25369918 -0.00199394 0.73551687
0.25758269 0.50342536 0.25654573
0.25689976 0.50212409 0.75947998
0.74074511 -0.00268833 0.24781077
0.74482199 0.00120717 0.74939377
0.74596273 0.49334441 0.25038280
0.75495217 0.49756969 0.75458825
0.23704801 0.24269660 0.00914998
0.26095472 0.26026813 0.51037293
0.22963144 0.75606658 -0.01620158
0.24852563 0.75329105 0.49445200
0.74812825 0.23622528 0.00167009
0.75208627 0.24758560 0.49883323
0.74667762 0.74465184 -0.00205057
0.75313603 0.74525914 0.49441870
0.98782456 0.00188441 0.24397486
0.00296984 0.00022202 0.75273987
0.00024309 0.50137520 0.25791471
0.00930600 0.49335772 0.74631895
0.49898512 0.00289062 0.24479321
0.49105461 0.01014532 0.75875905
0.50909112 0.50282067 0.26489086
0.49616372 0.50231333 0.74482521
0.25229983 -0.00469162 0.00213216
0.24166683 0.00986986 0.49902576
0.25021448 0.49688342 0.00672987
0.26056676 0.49811812 0.50030103
0.73423803 -0.00794128 0.99130669
0.75359094 0.98762475 0.50617825
0.74895306 0.49544520 0.00783679
0.76018246 0.50765693 0.50285855
0.98949702 0.24332094 0.99194095
0.00017323 0.24343504 0.50671292
0.99086838 0.75610892 0.01210867
0.00277345 0.74930780 0.49191612
0.49746917 0.25773774 0.00681723
0.50072809 0.24895730 0.49144905
0.50415030 0.73572215 0.00651255
0.49921243 0.75431739 0.49385288
0.24062309 0.25878188 0.24791062
0.25059835 0.24541278 0.75977033
0.25735733 0.74814257 0.24525825
0.24575048 0.76212731 0.74450868
0.75439122 0.24445894 0.26089536
0.74943969 0.25183025 0.74447471
0.74177531 0.75571210 0.24858155
0.75484698 0.74980394 0.75033119
Direct configuration=      3
0.01842085 0.90949264 0.07251167
0.10120189 0.04341812 0.45905210
0.08998481 0.48269660 0.07505610
0.01094661 0.49993799 0.38450927
0.58849986 -0.00143443 0.91878228
0.59990109 0.08411416 0.49207310
0.74980639 0.41129551 0.16182288
0.46169761 0.58292981 0.44309733
0.32635612 0.41128119 0.26723490
0.36549625 0.53822834 0.74191372
0.24686679 0.91087397 0.16757915
0.31087761 0.98399034 0.83709023
0.76738445 0.57536927 0.16044392
0.83698661 0.50926225 0.67341799
0.86656823 0.02072149 0.21079770
0.75456891 0.91146292 0.84061892
0.09121490 0.17335282 0.26476759
0.90814934 0.33188873 0.76452945
0.91646215 0.84477106 0.24467231
0.08045482 0.65433291 0.75188527
0.49682751 0.34236715 0.17453942
0.47793089 0.21845746 0.64518032
0.40688537 0.73560794 0.16501604
0.49793163 0.84183772 0.66200029
0.14563243 0.55873528 0.25698973
0.13787026 0.49301288 0.74550168
0.34551317 0.07656888 0.22475762
0.16749388 0.99926028 0.65000099
0.63245250 0.45046345 0.22964864
0.65894642 0.51520999 0.84292504
0.64368632 0.03119470 0.26895990
0.75938198 0.08224371 0.67126451
0.05900516 0.32001655 0.31126091
0.01166086 0.22504348 0.85646678
0.09608677 0.70650703 0.28950279
0.89906464 0.79340090 0.78895144
0.50880654 0.16816384 0.33426949
0.58544852 0.17389996 0.77583305
0.56614926 0.76094016 0.34330863
0.52446461 0.67661402 0.83719042
0.90876557 0.42407279 0.48672334
0.08725041 0.50510590 0.91154310
0.07816680 0.89988033 0.50822048
0.89260002 0.03235160 0.02960579
0.58711940 0.49850880 0.58247349
0.41069934 0.51703928 0.10497473
0.60689640 0.92931674 0.52089169
0.58520770 -0.00366747 0.09292960
0.97763548 0.16521047 0.16251045
0.00870640 0.28129302 0.63243112
0.91262369 0.66335883 0.24971813
0.99549019 0.73865552 0.63985995
0.49635031 0.17172500 0.16301781
0.58184093 0.33672028 0.73778257
0.47899112 0.86801615 0.24951669
0.61064922 0.78087954 0.73078145
0.27635270 0.35980065 0.47555258
0.25449289 0.13772561 -0.00187823
0.33879245 0.72500878 0.57945310
0.16373738 0.83733385 0.00102799
0.66482696 0.23405665 0.41488857
0.78498529 0.36186027 -0.01713796
0.82030051 0.80318834 0.56465383
0.77730199 0.73006260 0.11576121
0.94099789 0.17898766 0.31533370
0.07847309 0.33667217 0.74633767
0.07677660 0.83682794 0.22430746
0.03766014 0.72625238 0.86109080
0.48180589 0.32919432 0.34288064