Li192 P32 S160 I32
1.0
20.433000 0.000000 0.000000
0.000000 20.433000 0.000000
0.000000 0.000000 20.433000
Li I S P
192 32 160 32
Direct configuration=      1
0.07624489 0.91855897 0.96387423
0.99701227 0.01380063 0.38733683
0.97454380 0.52598923 0.10841022
0.12463695 0.49359515 0.50172692
0.58298034 0.93616281 0.00644104
0.53811903 0.99094858 0.59411675
0.56688264 0.50262861 0.09360363
0.55084741 0.60071973 0.47088828
0.36881258 0.51869043 0.20930090
0.32333104 0.40575172 0.77362663
0.17657197 0.90870008 0.23760514
0.33627247 0.99705680 0.83610941
0.83946514 0.59544360 0.23980532
0.85520449 0.50741408 0.71671419
0.83339610 0.03626528 0.18175146
0.75504543 0.89991615 0.81926832
0.02361060 0.32358520 0.17735097
0.93902785 0.23601379 0.64553768
0.94208853 0.73595816 0.15772599
0.95412026 0.73620430 0.64705494
0.57646074 0.33318284 0.25339196
0.49821359 0.32989754 0.66787192
0.50007738 0.83651909 0.16031524
0.61431588 0.72969971 0.78655582
0.29449065 0.48136080 0.34168761
0.16155766 0.58234468 0.72389554
0.23360865 0.10974638 0.27132627
0.14088611 0.99891253 0.69637172
0.67030919 0.44238333 0.24300813
0.78055671 0.47575828 0.85976251
0.66357134 0.97814420 0.32263493
0.73778634 0.12427265 0.75788609
0.99922592 0.14181852 0.27420702
0.03646843 0.23854024 0.85814953
0.07875868 0.74952270 0.33526431
0.08433459 0.74970882 0.82969055
0.40916104 0.16210110 0.22030398
0.47868801 0.17511741 0.83818202
0.43851965 0.67020827 0.33170463
0.39217344 0.75014853 0.78305920
0.95691464 0.49088814 0.39940461
0.92008287 0.40265767 0.01549579
0.90752661 0.08708656 0.49158947
0.98639613 0.90585805 0.08285481
0.59065232 0.44911057 0.51291797
0.50612117 0.40047952 0.01945961
0.44578278 0.90922354 0.49621714
0.40232978 0.93523889 0.04369989
0.00124616 0.17041127 0.14211275
0.08909546 0.18500832 0.70779989
0.03389260 0.63417185 0.26319379
0.01286162 0.64981023 0.77931141
0.51470248 0.24426470 0.14725611
0.50071271 0.15838402 0.68039117
0.48606916 0.68230312 0.16092615
0.52170198 0.64634367 0.78300152
0.35870650 0.20917079 0.52025706
0.21438811 0.14159226 0.96146024
0.28733012 0.71470052 0.61112762
0.36769587 0.74115559 0.01160872
0.74441495 0.13558876 0.50673532
0.74525554 0.17967805 0.08956021
0.70035025 0.65370018 0.49840928
0.69961559 0.63770319 0.99285636
0.99165070 0.31356275 0.34048686
0.90346432 0.32379852 0.77087778
0.92018074 0.73852152 0.33400388
0.02047225 0.86480554 0.75140162
0.49245532 0.27666126 0.37552818
0.47214036 0.32649615 0.83452114
0.48472321 0.83419151 0.33404368
0.50226537 0.82922169 0.66977419
0.49410303 0.00226692 0.37663315
0.46837653 0.97242115 0.88973889
0.49931570 0.49115710 0.38742429
0.58228076 0.49489953 0.91553794
0.05799888 0.11845629 0.50428239
0.95760855 0.96392051 0.88383005
0.03110658 0.60177267 0.45557879
0.07181873 0.40624544 0.03974835
0.40874412 0.06276651 0.98414526
0.40591787 0.03961287 0.51073075
0.40200401 0.50104560 0.92361457
0.42634666 0.42094102 0.47357810
0.88891014 0.00946856 0.01557472
0.10514392 0.96766736 0.52370329
0.98822892 0.48007690 0.90095654
0.88685475 0.55602668 0.50647906
0.56286267 0.09785268 0.97569626
0.54591149 0.11448180 0.48775219
0.52484260 0.61388318 0.98971849
0.39603846 0.54007356 0.52183046
0.03709818 0.10005236 0.96682967
0.94226832 0.91498431 0.49340221
0.08386386 0.57169403 0.01286841
0.98418220 0.51964967 0.61849091
0.33606938 0.93463427 0.19339707
0.25887938 0.89142217 0.73682037
0.25487730 0.61417505 0.25497914
0.28010964 0.53612367 0.64495943
0.74369915 0.11432000 0.27760381
0.74687331 0.97157081 0.65096975
0.77620491 0.51705208 0.13596733
0.75856397 0.57595654 0.66280330
0.16670043 0.99593187 0.33465501
0.26682923 0.11098266 0.72759340
0.23909084 0.37991033 0.22275799
0.23089947 0.50537190 0.85077546
0.74770902 0.89002093 0.21278317
0.68058754 0.02187028 0.86550209
0.76431188 0.48518385 0.36294418
0.75349713 0.58018310 0.83465889
0.31630146 0.22924579 0.90865562
0.27417881 0.35890628 0.46609251
0.23254918 0.82830327 0.07172069
0.35447281 0.75873701 0.46022893
0.85415108 0.22439301 0.99889511
0.85893582 0.23705909 0.45698002
0.83390035 0.71648209 0.94001594
0.75230913 0.73598487 0.40377642
0.18857290 0.25294191 0.09400987
0.15108746 0.27692807 0.53049781
0.22432349 0.64502547 0.93575895
0.13963346 0.76032151 0.52581087
0.63316828 0.28141394 0.02269642
0.65026315 0.26339477 0.58511027
0.66463753 0.74822287 0.08358749
0.76377810 0.77791375 0.62133238
0.41613904 0.30761587 0.21845560
0.38886298 0.24163115 0.72314805
0.38675081 0.76310557 0.19650683
0.50880960 0.67848962 0.65174833
0.88805182 0.27288073 0.25367302
0.89733179 0.17164462 0.76739589
0.09092717 0.74703140 0.16645623
0.90964243 0.76269653 0.81157070
0.07644872 0.02830559 0.08754599
0.97232955 0.00815349 0.62252166
0.91088817 0.57108643 0.00633728
0.98124104 0.39848805 0.49204858
0.49718721 0.03299163 0.10665810
0.60749695 0.94530558 0.49325180
0.42174400 0.51794156 0.07255474
0.49545255 0.50354269 0.62132044
0.33381028 0.00983123 0.32667180
0.32365890 0.99644160 0.65860936
0.18473471 0.49814405 0.15153463
0.33034182 0.57185572 0.76191931
0.80467929 0.96958355 0.33880192
0.85105998 0.99841053 0.80317917
0.71242203 0.61176749 0.26718675
0.64296220 0.48473644 0.75911162
0.11886273 0.24236243 0.24108887
0.02418029 0.34740318 0.69048180
0.99643215 0.84969609 0.26515000
0.10533307 0.77043549 0.69747312
0.58635322 0.15723880 0.26179322
0.59466315 0.27148308 0.75799177
0.59722765 0.72610668 0.27466203
0.50956130 0.82116420 0.84178904
0.27890235 0.35831053 0.01666889
0.27027242 0.29622307 0.60425442
0.14084898 0.75749469 0.97697309
0.24985707 0.80204408 0.38493060
0.75692739 0.31799608 0.90170021
0.77739089 0.36713509 0.48024057
0.73763255 0.86716990 0.01248841
0.80569278 0.83405504 0.48409506
0.14874279 0.52652408 0.30217335
0.16189746 0.41584164 0.73637817
0.22929753 0.03223997 0.14092471
0.16515557 0.00326969 0.85041465
0.84300518 0.42860871 0.25785392
0.74815838 0.40892732 0.68923696
0.68176832 0.00552178 0.15629833
0.63302327 0.98919597 0.73509638
0.34581808 0.20799964 0.03818305
0.21150547 0.12927732 0.49407176
0.25182055 0.67189740 0.08883815
0.26449369 0.84973881 0.57485959
0.75434196 0.34181693 0.08530876
0.78469634 0.21652680 0.61664254
0.80544225 0.75511529 0.10846206
0.85130904 0.71160329 0.51265511
0.24157635 0.20306180 0.39247634
0.18770060 0.29279659 0.91541359
0.25898381 0.64604032 0.45509058
0.27928719 0.78959870 0.88576930
0.68129828 0.25596422 0.42501830
0.71067645 0.17773540 0.92124838
0.64028083 0.80800702 0.50271850
0.64975201 0.77422496 0.93425720
0.13687383 0.10754202 0.37031508
0.13255958 0.13796631 0.86530228
0.12694383 0.63865343 0.36280240
0.12028615 0.61473116 0.87104574
0.62291541 0.10129349 0.37947393
0.60631338 0.12445220 0.85291832
0.63829804 0.64127382 0.36985120
0.62064037 0.63340267 0.88041112
0.37985125 0.35972527 0.36329463
0.35657190 0.37176689 0.89207624
0.35968449 0.86817412 0.36342903
0.37804623 0.86815792 0.85727856
0.86971079 0.38151658 0.39336196
0.87651404 0.37712417 0.88963395
0.88530367 0.86838564 0.36576426
0.86417656 0.87164548 0.89487372
0.36438404 0.10143493 0.11873059
0.38872241 0.12133164 0.62318058
0.37291906 0.62558434 0.13805341
0.37939322 0.62094223 0.62519745
0.87108731 0.13548606 0.10391111
0.85975626 0.10446033 0.65006202
0.87600478 0.62740982 0.12279443
0.88062053 0.62991344 0.62421280
0.13605859 0.36486792 0.13930636
0.12642136 0.38702086 0.61947551
0.12239565 0.89032076 0.11617587
0.12067930 0.88641293 0.63447853
0.62053394 0.38732019 0.12186218
0.62866667 0.37952366 0.63779819
0.63110668 0.87492103 0.13685915
0.63084862 0.86085705 0.62316796
0.04373510 0.45124444 0.32335103
0.05231309 0.43357908 0.81047962
0.04565604 0.95316239 0.29385899
0.05980909 0.94983015 0.80747685
0.56398245 0.44831243 0.29130479
0.53674568 0.42849980 0.81996376
0.55773070 0.93439251 0.29568314
0.55964633 0.93737534 0.79971901
0.44704986 0.05950062 0.28443936
0.43049965 0.05082223 0.79037410
0.44182753 0.55604342 0.30105620
0.44045252 0.56770707 0.82553123
0.92324680 0.05590726 0.30541232
0.95019567 0.07748423 0.82297377
0.94444931 0.57022434 0.29523078
0.94619625 0.55654820 0.81623264
0.44850418 0.44801582 0.17530484
0.42426736 0.43677786 0.70637418
0.44748577 0.94316299 0.17070881
0.44409295 0.93433464 0.67789323
0.95232293 0.43464719 0.18597914
0.94204711 0.43929850 0.69758224
0.93109785 0.95158982 0.17946553
0.93882784 0.93949751 0.71975900
0.05112571 0.07077546 0.18638112
0.04907493 0.06774426 0.68808035
0.07475534 0.54234211 0.19292262
0.05577803 0.54991342 0.69641051
0.57082139 0.05970380 0.18757048
0.55532080 0.05147789 0.68705908
0.56743785 0.57084564 0.19338213
0.55530914 0.54334670 0.71492122
0.30516654 0.07152981 0.44585721
0.30388609 0.04952019 0.94661567
0.31809217 0.55745247 0.43317720
0.30619557 0.55691056 0.94881623
0.80663633 0.05555066 0.44525234
0.79860263 0.06982679 0.95042445
0.80124209 0.56993674 0.44541449
0.80333519 0.55316009 0.94835805
0.30683705 0.45478129 0.07798271
0.31564951 0.43764059 0.54508115
0.29751461 0.93810308 0.07212925
0.33834907 0.94509446 0.55760276
0.80579821 0.44055519 0.05626607
0.80750849 0.46768798 0.57906673
0.79407299 0.96592365 0.08419234
0.83067202 0.93854379 0.56007938
0.19978663 0.45767898 0.42758938
0.19457505 0.44078185 0.96535683
0.20226989 0.93798128 0.45300283
0.19955177 0.92422472 0.93361224
0.69342772 0.45208714 0.45050985
0.68398599 0.43475432 0.93669376
0.72228364 0.92230992 0.43191618
0.68272110 0.95290292 0.95104501
0.18234057 0.05298522 0.03673347
0.19377249 0.04571846 0.56971775
0.19077093 0.57369207 0.05872151
0.20920996 0.56571122 0.55572442
0.67277132 0.07549036 0.06125444
0.68668616 0.03053433 0.55924479
0.67793220 0.55147462 0.06406511
0.67849510 0.55835491 0.56129118
0.42806528 0.30084327 0.05762703
0.43608790 0.30479450 0.56271979
0.43621694 0.82162878 0.06581884
0.44471238 0.80042346 0.54491981
0.96412201 0.30619011 0.07869182
0.93131360 0.30291665 0.54264820
0.93266523 0.79770734 0.05463408
0.92562362 0.80960242 0.54747929
0.06347478 0.32787523 0.44450098
0.07506038 0.32394406 0.95337978
0.05778472 0.81815670 0.43803253
0.04163364 0.79895661 0.93803474
0.57533324 0.30239595 0.46895173
0.55273582 0.29600722 0.93338665
0.55119098 0.79034062 0.41764662
0.54911105 0.84144037 0.95384697
0.45326761 0.19520642 0.45146054
0.43639763 0.19268564 0.93837735
0.44282543 0.67137591 0.44490342
0.46141438 0.70192474 0.93536121
0.96261185 0.18826562 0.42712828
0.96538989 0.20560836 0.95445626
0.94902612 0.68641273 0.43943700
0.95829483 0.66404190 0.94010582
0.08878709 0.19909722 0.06175897
0.06826011 0.21143901 0.55973853
0.06611290 0.70823038 0.05607541
0.05288040 0.71125441 0.56541722
0.55373045 0.19141750 0.05768588
0.56631938 0.18961499 0.57551647
0.56218678 0.70277364 0.06216926
0.57119542 0.69985223 0.54575709
0.31601390 0.28682956 0.17930711
0.29878143 0.32292559 0.70883016
0.29954957 0.82705790 0.20514233
0.31580300 0.78653831 0.69465342
0.80160280 0.33229081 0.20078741
0.81653772 0.30611580 0.68963270
0.82683975 0.80985855 0.20757407
0.81408085 0.80787798 0.72259777
0.31834457 0.18358339 0.30748182
0.29643636 0.19965855 0.79963518
0.29922098 0.70419462 0.32095567
0.29554013 0.67671057 0.81052251
0.80007714 0.21731625 0.31706861
0.79303187 0.20254020 0.82295879
0.80287803 0.68785999 0.30752380
0.81878616 0.68243061 0.82864738
0.19576576 0.17459740 0.18723098
0.20749521 0.19748177 0.66703261
0.20188030 0.69618618 0.19619812
0.18337734 0.69140360 0.68531732
0.68605593 0.21377651 0.19959602
0.68680623 0.20902843 0.69417139
0.70885407 0.69474454 0.18323986
0.69840295 0.69899964 0.71383202
0.19908455 0.29299282 0.29563109
0.14859422 0.29780109 0.78612193
0.16745982 0.81426862 0.29649358
0.19146778 0.79816756 0.80216978
0.68018296 0.32105331 0.31706603
0.69792377 0.33267179 0.79672140
0.69760924 0.81684622 0.29506701
0.69224369 0.80983121 0.82948299
0.99397185 0.98743044 0.98767747
0.99585459 0.01559757 0.50165052
0.99106754 0.48473095 0.00772149
0.00035042 0.51184995 0.50197311
0.49366926 0.99770578 0.99232678
0.50033940 0.00507305 0.48767835
0.50663925 0.51118720 0.99825479
0.49301174 0.49919079 0.49525946
0.00321080 0.23841523 0.23798787
0.99292392 0.24630650 0.73612833
0.01125319 0.74500087 0.24424065
0.00430869 0.76237631 0.75228111
0.50670428 0.23959879 0.25569180
0.49100993 0.25094567 0.75601519
0.48752547 0.76446151 0.24761876
0.50449503 0.74848451 0.74756349
0.24725709 0.99251875 0.24930237
0.25335950 0.00304138 0.75013824
0.25189120 0.51097017 0.24183781
0.24216465 0.49956466 0.74519229
0.73712443 0.99905702 0.25071936
0.74446838 0.01339042 0.77039266
0.76702473 0.50901567 0.25012951
0.75253149 0.49999380 0.75451633
0.24617563 0.24585841 0.99819751
0.26334670 0.25122925 0.49993829
0.24731861 0.74789252 0.98901471
0.24961047 0.75961425 0.50004044
0.74675908 0.25415547 0.99923855
0.75731232 0.25088444 0.51337700
0.74167563 0.75348630 0.00607774
0.74479747 0.75040651 0.51883695
0.98422584 0.01189171 0.23690904
0.00032601 0.01356653 0.76211548
0.99952915 0.49467458 0.24935813
0.99794980 0.49708597 0.75890891
0.50651585 0.99321216 0.24162676
0.49815058 0.98865689 0.73794228
0.50438096 0.51084024 0.24138092
0.48401184 0.49959028 0.76729031
0.24179811 0.98838408 0.99892252
0.26222391 0.99879889 0.50614267
0.24861273 0.50558977 0.01519240
0.26232802 0.50461549 0.49278252
0.73802908 0.01768409 0.01368417
0.76092734 0.98367128 0.50252518
0.73544708 0.49496350 0.00186110
0.74676013 0.50596820 0.51387402
0.02619743 0.25863639 0.01415681
0.00585612 0.25750977 0.49196536
0.99007793 0.73584579 0.99588676
0.00033511 0.75997750 0.49924722
0.49240855 0.24865342 0.00157270
0.50907867 0.25038638 0.51768667
0.50069115 0.76631113 0.00384756
0.50019120 0.74237936 0.48706040
0.25735147 0.23088707 0.24307531
0.23246807 0.25339105 0.75027243
0.24380165 0.76271437 0.25840515
0.24886669 0.73593108 0.74886034
0.73946168 0.27049854 0.26082477
0.74755463 0.25995808 0.75154011
0.75400663 0.75283944 0.25116793
0.75592246 0.74965466 0.78149532
Direct configuration=      2
0.08899155 0.94887799 0.99445506
0.96432537 0.98630711 0.37833657
0.97784958 0.51627728 0.12335811
0.11889008 0.47826475 0.53022891
0.58721626 0.93601690 0.01446797
0.47159237 0.98008160 0.61143042
0.56522840 0.50087355 0.08357819
0.52876809 0.59527924 0.48480308
0.35005480 0.50316430 0.21309487
0.32707759 0.42067224 0.75631855
0.17629154 0.91419183 0.23809886
0.34205720 0.99252729 0.83091428
0.84032639 0.57955620 0.26383431
0.85889693 0.56832723 0.74227826
0.84215120 0.02019655 0.18479863
0.77840210 0.88084556 0.78691426
0.00941351 0.34160382 0.19645638
0.97724061 0.17183222 0.65138000
0.92514202 0.74194500 0.16271973
0.95774024 0.73797612 0.65817881
0.57688518 0.33283718 0.26293058
0.49496361 0.35126761 0.68260524
0.50040871 0.85047546 0.16497485
0.62492772 0.77815292 0.71556104
0.30146921 0.46957674 0.34875965
0.16343870 0.58552954 0.75001410
0.20588890 0.10497391 0.27304689
0.14232397 0.99999870 0.67354647
0.67953646 0.42970039 0.21525100
0.76968066 0.45025920 0.86461938
0.66610110 0.97651990 0.31813693
0.73441792 0.10045711 0.74204911
0.98273182 0.16431538 0.33101122
0.03705183 0.24242751 0.83502023
0.07568412 0.75749526 0.33133320
0.08665399 0.75153571 0.83643027
0.41977777 0.16277881 0.23896008
0.49637269 0.17415762 0.82550558
0.47336479 0.67676017 0.33553293
0.39159560 0.74892124 0.75542073
0.99478488 0.50122140 0.39905479
0.92631105 0.42040563 0.02866486
0.91298450 0.09164484 0.51964404
0.97495432 0.90306565 0.06138751
0.59718615 0.42809521 0.51295484
0.50607737 0.38862833 0.02127977
0.45595406 0.89012248 0.47112730
0.43064501 0.93397610 0.01669891
0.02028208 0.20836093 0.14924698
0.08960394 0.18353927 0.72233503
0.03369182 0.62597051 0.27310102
0.00440907 0.63381642 0.79109123
0.52849774 0.26158164 0.14443010
0.51531635 0.16586933 0.67147430
0.53138922 0.66844689 0.16476476
0.51123594 0.64107234 0.81821594
0.36602158 0.24912879 0.52367427
0.22540379 0.14550745 0.98510686
0.25819651 0.68184976 0.59351864
0.35505831 0.77169873 0.99171596
0.72220273 0.13773433 0.47320407
0.74594528 0.15932710 0.08266130
0.70826747 0.63093191 0.49437840
0.71371566 0.65280790 0.98931866
0.99401383 0.32895174 0.35445734
0.92278599 0.35202153 0.76314008
0.90641196 0.73187221 0.32668822
0.01396696 0.87443817 0.76353504
0.50119326 0.24713921 0.36740275
0.47964403 0.31766484 0.84607191
0.47007972 0.82133368 0.32352559
0.49993047 0.84714265 0.71873949
0.52903542 0.02300317 0.39070681
0.49395533 0.99583725 0.89259197
0.46111324 0.48492740 0.38477530
0.57677437 0.47742782 0.92502698
0.03901205 0.11185771 0.46768922
0.96087555 0.96748120 0.90412942
0.08351254 0.59366236 0.49616442
0.09748192 0.44004754 0.01357467
0.40114611 0.06141834 0.99099347
0.41308683 0.04110589 0.49133553
0.40258359 0.49734427 0.91396237
0.44978765 0.39533059 0.51073471
0.88736679 0.01418866 0.03186629
0.11330957 0.96943111 0.50816637
0.97874036 0.45971295 0.90025787
0.88465849 0.50450555 0.49410900
0.58872260 0.09868615 0.96923682
0.55843050 0.10467727 0.50792427
0.51436069 0.61936830 0.98782244
0.39354371 0.54146960 0.52166352
0.02239969 0.09819234 0.96868627
0.96321099 0.88766570 0.46722853
0.02550866 0.61034268 0.96167007
0.97643990 0.54608842 0.61240049
0.32765719 0.93741043 0.19739690
0.28726024 0.89472762 0.74962210
0.22789221 0.60395464 0.26285797
0.24318364 0.51786606 0.63924114
0.73801728 0.12610037 0.26733629
0.75955046 0.95888831 0.64510384
0.76967303 0.54178969 0.14720532
0.71051558 0.58061275 0.67567311
0.16585729 0.99147489 0.34259132
0.23419452 0.10579913 0.76247816
0.23602586 0.38232858 0.21729479
0.23402076 0.51977659 0.85352291
0.75462689 0.89360990 0.24345661
0.67282688 0.99957293 0.84726595
0.74730533 0.50181683 0.37478188
0.74830707 0.60268055 0.84319481
0.34281589 0.24829598 0.90593712
0.28764197 0.37340632 0.46719411
0.23565209 0.85959141 0.02321160
0.35562038 0.77981683 0.45216235
0.87195107 0.24953004 0.01042268
0.84567043 0.25603207 0.45363460
0.84055055 0.75698281 0.94126792
0.72624224 0.72906157 0.38247807
0.18424844 0.24620152 0.06165184
0.14076516 0.26838498 0.49616282
0.25730737 0.66151123 0.91675445
0.14385294 0.78928143 0.52478415
0.63784212 0.26613450 0.00141417
0.65131965 0.26088711 0.58770506
0.66257915 0.75745869 0.06955914
0.73523538 0.76243179 0.60537923
0.40688289 0.33096250 0.23174421
0.37965818 0.22531137 0.73105776
0.39548168 0.74939707 0.17841074
0.46631528 0.71135676 0.64187114
0.87843594 0.20116431 0.23435133
0.89552845 0.15609523 0.76896815
0.07957003 0.76771771 0.16128684
0.91587479 0.75822434 0.80667145
0.06766372 0.01479550 0.09551179
0.97784563 0.98029608 0.60485354
0.89575011 0.58827254 0.00327168
0.98433800 0.39708204 0.51243761
0.50366286 0.08572420 0.10709828
0.62397221 0.97159007 0.50772997
0.40141177 0.50174118 0.07330458
0.51128027 0.51313485 0.60852643
0.33213136 0.99391464 0.33115600
0.28682734 0.01466714 0.64668457
0.20009351 0.48751524 0.14762036
0.32864048 0.58054888 0.75023755
0.83206303 0.00960418 0.32950477
0.82852835 0.01487720 0.82209116
0.67055507 0.59470536 0.24531923
0.64851394 0.47318663 0.74603431
0.10761909 0.23859005 0.26216278
0.02397075 0.31682725 0.65200346
0.97174290 0.86253494 0.26503707
0.09175214 0.73157833 0.66709902
0.57255892 0.16971912 0.26009508
0.60481845 0.28769146 0.75477442
0.59327678 0.76014721 0.31433850
0.50022040 0.80923856 0.85287592
0.26984459 0.36680503 0.98759919
0.22512733 0.27922285 0.60479802
0.13530332 0.74659753 0.99082484
0.24937042 0.81206922 0.39360328
0.75992830 0.31594991 0.90958698
0.74793943 0.35216731 0.55134469
0.80353918 0.85707806 0.99890644
0.79356967 0.85839157 0.48137370
0.13876368 0.48784392 0.28481272
0.17615844 0.41153067 0.74345427
0.25687869 0.06309190 0.15414462
0.19019488 0.01152653 0.85508845
0.82946282 0.41190407 0.27023936
0.79986312 0.42730979 0.70861250
0.70354488 0.00822327 0.14529905
0.63611288 0.97295658 0.71576767
0.34182215 0.25695927 0.07875844
0.26635263 0.14243098 0.53126346
0.24970079 0.64819642 0.08584266
0.25989883 0.84051707 0.57978460
0.74758832 0.33804293 0.08496298
0.78420150 0.21235014 0.61848429
0.80422524 0.70643465 0.09653885
0.85680621 0.69644996 0.50913537
0.28512041 0.21699773 0.39069204
0.17120681 0.25634069 0.90679136
0.24605395 0.66872697 0.42041540
0.26067383 0.80731269 0.89958309
0.70631262 0.28230571 0.41454492
0.73879130 0.17450354 0.92650245
0.63468914 0.75471912 0.49601974
0.67330973 0.75066466 0.92017355
0.12693193 0.13080745 0.37067504
0.12645725 0.13516201 0.86622468
0.13298828 0.62049225 0.37718816
0.13860537 0.63401728 0.86130227
0.62364104 0.10921429 0.38966269
0.62114350 0.12403784 0.85597654
0.62248928 0.64356527 0.37307706
0.62987184 0.63161810 0.88317457
0.37658482 0.36620329 0.36684883
0.35529383 0.38425722 0.87581275
0.37037926 0.87001186 0.36582644
0.37328199 0.87253097 0.85680162
0.88114514 0.37643353 0.39405412
0.87600384 0.38181160 0.89463802
0.87801206 0.87101550 0.35515276
0.87131119 0.87701552 0.88604964
0.36563472 0.11782767 0.11852390
0.38499735 0.11620368 0.62734538
0.37844651 0.62621166 0.13050316
0.37755958 0.61447375 0.63740325
0.87834871 0.12723610 0.10049679
0.85320212 0.10396763 0.64433923
0.88866384 0.61720143 0.13660558
0.88159843 0.64084454 0.63700306
0.13036183 0.36301549 0.13589371
0.12701342 0.38198844 0.60772330
0.11394652 0.90259700 0.10722555
0.13017861 0.87489933 0.62565573
0.61174111 0.37280232 0.12414102
0.62843865 0.37958128 0.65108392
0.63523863 0.87078132 0.13415861
0.63530359 0.86968842 0.63345088
0.04869691 0.42522173 0.31608855
0.07640501 0.44960473 0.82125032
0.05838035 0.94682271 0.29826074
0.06348188 0.96218002 0.81641854
0.55646974 0.44077186 0.31005874
0.54854737 0.42917878 0.80886847
0.53853165 0.93574383 0.31423427
0.55486324 0.94103395 0.80069970
0.42825031 0.05971131 0.30205123
0.44429637 0.06087498 0.82320986
0.43190188 0.54438878 0.30023328
0.43668359 0.54250960 0.81067587
0.92997289 0.06093356 0.30128559
0.94510314 0.06176996 0.82928331
0.95088945 0.55428335 0.31000002
0.95342236 0.54406155 0.82456215
0.44507730 0.42511801 0.18510107
0.43306678 0.45220978 0.67733194
0.44666693 0.95591548 0.17319607
0.42792767 0.94966472 0.70427735
0.93136179 0.43819546 0.19573642
0.95696259 0.44456666 0.70266079
0.95000684 0.94487693 0.18221161
0.92914716 0.95362184 0.71732042
0.04445098 0.08530712 0.19281577
0.04404368 0.06336905 0.68198141
0.06612438 0.53517816 0.20223449
0.06472158 0.56588281 0.70460305
0.56564671 0.06493987 0.20504762
0.54920791 0.05916346 0.68704597
0.55997947 0.54718714 0.19206123
0.55921237 0.54922942 0.69833676
0.30389618 0.07070737 0.42855441
0.30058949 0.05206913 0.92666151
0.32758469 0.55854918 0.41791546
0.30900295 0.55649258 0.93947488
0.80550165 0.06230703 0.44439460
0.79919242 0.05793125 0.93395819
0.79226764 0.56511380 0.46710100
0.79405706 0.57098571 0.95226057
0.29580646 0.45333529 0.06240361
0.30603028 0.45722796 0.55368360
0.31382538 0.94992493 0.05936499
0.32049307 0.95441837 0.55308791
0.79744170 0.44875368 0.08144795
0.80680428 0.45589340 0.58436318
0.79510666 0.96056116 0.07086175
0.82906048 0.93712775 0.55442332
0.19487575 0.44021726 0.43737354
0.18664627 0.45143555 0.94232365
0.20062324 0.93597129 0.44149173
0.20273558 0.92515896 0.93723094
0.70168149 0.41993270 0.46130884
0.69312635 0.43310246 0.95143259
0.71183926 0.92905902 0.44416599
0.69262283 0.92675911 0.94325917
0.18579221 0.05773213 0.04061606
0.19051079 0.04942832 0.55248056
0.17786758 0.56564527 0.04870969
0.19866508 0.57674628 0.52028994
0.67775339 0.06587100 0.04515437
0.70103763 0.05077397 0.56171113
0.68166297 0.55548750 0.06840432
0.66275038 0.55133969 0.56233419
0.45125905 0.30139898 0.07298189
0.45422981 0.29424360 0.58300155
0.43517558 0.81614559 0.06934529
0.44193480 0.80909452 0.55684632
0.96202826 0.30132348 0.06928823
0.93885220 0.29650385 0.56593865
0.92631633 0.79502754 0.06081028
0.92633985 0.80931791 0.54976539
0.05206963 0.31564800 0.45127331
0.06734232 0.31910417 0.94189170
0.05066477 0.81027640 0.44226619
0.04270821 0.81400152 0.94571707
0.55530358 0.32231592 0.45327116
0.53924943 0.31198720 0.93767624
0.54479673 0.81049645 0.43922578
0.56661900 0.82722338 0.95313746
0.46117102 0.18566289 0.46214454
0.42845899 0.19039454 0.94035876
0.43168765 0.69066580 0.45291603
0.44788491 0.71502979 0.92581764
0.94695115 0.19342278 0.44348519
0.96367317 0.19554558 0.93253257
0.93921581 0.68516863 0.43127333
0.93590891 0.68402063 0.94221226
0.07990388 0.18627010 0.04812657
0.05868654 0.18630901 0.55763632
0.05855063 0.69487261 0.05213837
0.05326083 0.69699304 0.55499850
0.55653916 0.17883141 0.04577443
0.57354932 0.18886546 0.57249635
0.55450139 0.69966246 0.05291743
0.55470213 0.69351736 0.55340740
0.30816053 0.30110720 0.17460262
0.29173094 0.32205759 0.68817831
0.29564409 0.80860346 0.18522065
0.30817015 0.79287312 0.68419360
0.79726812 0.31773395 0.20007777
0.81735599 0.30683030 0.69854022
0.81530330 0.80140707 0.18775009
0.82855916 0.81052979 0.71236773
0.31091797 0.17144917 0.28301927
0.30236043 0.19922909 0.81242688
0.29147143 0.70546393 0.31427226
0.30565946 0.69126695 0.80976387
0.79291317 0.20546987 0.32543506
0.79046354 0.19148353 0.81952571
0.80679627 0.68130092 0.31623718
0.81683798 0.69346141 0.82847833
0.19498591 0.18356386 0.17674073
0.20379814 0.18589821 0.68221951
0.18799920 0.68900022 0.19325885
0.19003767 0.67265689 0.68953980
0.68028736 0.19343244 0.20149361
0.68307657 0.21181229 0.68980470
0.70388017 0.69412361 0.17826675
0.70395531 0.69596658 0.70445573
0.20311889 0.29599452 0.29381597
0.17598612 0.30172195 0.80031401
0.17793712 0.81590524 0.30412795
0.18438320 0.80206679 0.79869958
0.67868699 0.31728996 0.30874715
0.70112609 0.33268912 0.80953526
0.70469341 0.80865655 0.29617709
0.70035759 0.79312408 0.81211813
0.00031472 0.99970694 0.00523281
0.99633592 0.00499933 0.48671905
0.99123796 0.51283872 0.00764199
0.99958619 0.51560872 0.51113880
0.50252762 0.02139530 0.00650746
0.51067576 0.98360728 0.50422458
0.48974768 0.49734799 0.00141900
0.50655568 0.49066575 0.50074296
0.99280094 0.25139746 0.26046358
0.98491196 0.24199053 0.73251311
0.99908430 0.75412579 0.24621768
0.01390732 0.75077103 0.74884916
0.49456007 0.25388122 0.25195584
0.48479654 0.25973520 0.74980142
0.50206396 0.74987471 0.24183162
0.50861674 0.74251790 0.75286581
0.25028300 0.99808931 0.25542671
0.24446944 0.99393852 0.74544050
0.24421564 0.48513828 0.25461362
0.24997131 0.50936108 0.74436133
0.74869495 0.01272570 0.25543699
0.74133029 0.98501319 0.76020067
0.75698738 0.50343895 0.26315984
0.75068508 0.51379632 0.76976914
0.26601634 0.25666296 0.98661525
0.25613271 0.25789553 0.49579233
0.24955041 0.74798761 0.99663532
0.25172026 0.76149948 0.50739340
0.75389571 0.24799692 0.01317645
0.74373551 0.23972673 0.51179127
0.74682648 0.75184769 0.00852301
0.75113127 0.74899816 0.49711196
0.00210141 0.00846240 0.23969198
0.99363591 0.01102990 0.75981294
0.99701029 0.48736554 0.25276476
0.01794436 0.50001282 0.75956645
0.49406821 0.00917470 0.24461183
0.49167513 0.00629479 0.75528845
0.49636186 0.48570747 0.24283594
0.49309369 0.48644055 0.75120033
0.25289142 0.99156321 0.99236532
0.25413929 0.00092333 0.48891800
0.24457306 0.51255305 0.99766000
0.25752356 0.50911860 0.47676323
0.74180245 0.99981705 0.99273144
0.76375437 0.99397460 0.50463543
0.74327500 0.49841119 0.01168907
0.73991573 0.49901803 0.52024560
0.01940492 0.25166311 0.00093021
0.00107653 0.24814452 0.50470232
0.99462073 0.75260532 0.00319564
0.98707224 0.75172757 0.48965892
0.49374751 0.24463374 0.99620590
0.50905471 0.25116690 0.51512395
0.50048464 0.76503916 0.99914992
0.49174048 0.75155496 0.49735300
0.25528397 0.24183053 0.22985698
0.24406154 0.25390408 0.74164182
0.23923396 0.75633663 0.24569219
0.24004918 0.74006460 0.74556735
0.74177055 0.25921231 0.25179742
0.75027249 0.26331449 0.75769494
0.76170505 0.74386067 0.24324243
0.77023848 0.74335775 0.75923077
Direct configuration=      3
0.12217822 0.95395781 0.99798101
0.97020584 0.97913703 0.38925665
0.98900470 0.52444479 0.11390389
0.11671936 0.46966935 0.51656627
0.59330238 0.93751595 0.01662060
0.46209838 0.01823989 0.61419920
0.58758250 0.48903886 0.07480596
0.51518996 0.60814170 0.48285375
0.34510579 0.51976679 0.19119325
0.34967545 0.41739330 0.71746932
0.14553572 0.93160403 0.23589600
0.34745730 0.01954436 0.80526489
0.83697258 0.57234377 0.28475102
0.86084674 0.58040635 0.75635182
0.84738473 0.03899472 0.21637231
0.78340548 0.88537714 0.77223026
0.00602853 0.34134903 0.19184007
0.98196350 0.20530083 0.64610524
0.93473302 0.74260062 0.17361570
0.92093750 0.75707367 0.67676427
0.56216375 0.32962213 0.24488216
0.51358164 0.33456823 0.68155215
0.50416535 0.84441522 0.18956299
0.61920769 0.73452371 0.73896179
0.30303543 0.47249698 0.34603615
0.16941677 0.57184305 0.73926736
0.21340649 0.11416187 0.26338854
0.13124588 0.99626413 0.69165777
0.65213843 0.43726211 0.25281490
0.76642051 0.45354426 0.86898913
0.67207347 0.99261598 0.32633284
0.73760255 0.11437390 0.76908971
0.98573061 0.16277689 0.32635708
0.00314317 0.27459306 0.85789019
0.09350771 0.74996908 0.32862991
0.09000716 0.77537709 0.82898622
0.42618245 0.14606757 0.24699227
0.51048861 0.16802538 0.83919251
0.49141516 0.65931431 0.32612104
0.38981909 0.78140351 0.77162978
0.02508834 0.48119314 0.39668023
0.92204878 0.41660581 0.00860249
0.90933382 0.05054899 0.52125699
0.98166009 0.92704900 0.07023308
0.59979732 0.44274515 0.51850442
0.49274314 0.37935609 0.01644702
0.46749353 0.89060862 0.49445034
0.42366564 0.91263308 0.99172704
0.99244037 0.17742430 0.14755705
0.08739025 0.16662151 0.74787011
0.01109525 0.63175698 0.27401195
0.01605813 0.63987542 0.78300320
0.52707054 0.24263784 0.14662671
0.51855718 0.16872169 0.66505645
0.50745964 0.65679433 0.16204149
0.51083932 0.64823987 0.77557856
0.36739357 0.22151436 0.53857963
0.22813116 0.14220117 0.97203624
0.24392847 0.66331170 0.57915063
0.36492515 0.77654770 0.00785635
0.72701550 0.14941326 0.50320923
0.73795729 0.17335016 0.09775870
0.69127590 0.63528634 0.49113679
0.71518737 0.62075945 0.96821512
0.98433267 0.32755158 0.34935400
0.91508305 0.32561276 0.77408582
0.92258138 0.74801121 0.33212082
0.04894955 0.86571450 0.71783955
0.47539055 0.26991059 0.36570964
0.48051350 0.32688962 0.83806322