Li192 P32 S160 I32
1.0
20.433000 0.000000 0.000000
0.000000 20.433000 0.000000
0.000000 0.000000 20.433000
Li I S P
192 32 160 32
Direct configuration=      1
0.08845978 0.91807694 0.98361493
0.98793946 0.98388506 0.38742575
0.97836331 0.51938846 0.11298926
0.11531984 0.48362782 0.52009175
0.58203263 0.91970061 0.01201031
0.51225601 0.98121566 0.61245382
0.58292458 0.49666848 0.08399960
0.57612429 0.58440005 0.49619932
0.35371172 0.52580427 0.21908856
0.33197511 0.41735962 0.75368822
0.16692122 0.91851001 0.23444487
0.33053659 0.99545122 0.83191441
0.84098672 0.57992375 0.25393455
0.86452494 0.51668576 0.72973125
0.83495952 0.01017316 0.17227997
0.76928731 0.88836562 0.77379348
0.99915410 0.33786229 0.17169165
0.98293875 0.22498779 0.63908915
0.92796930 0.74050276 0.16882155
0.95065388 0.73219791 0.64615217
0.57457756 0.32723122 0.24986308
0.49876579 0.33580725 0.67571587
0.49891345 0.83516254 0.16714887
0.61169490 0.76829830 0.73079635
0.29213989 0.47569850 0.35270117
0.17045656 0.58198285 0.75804327
0.22791219 0.10967010 0.26108555
0.16230576 0.00708927 0.67054368
0.67083099 0.42504724 0.24106933
0.76009308 0.42809040 0.82954512
0.66691987 0.99068152 0.33185397
0.73343245 0.11508601 0.75905483
0.00333731 0.16534179 0.32869374
0.98419151 0.27140072 0.86408771
0.08261188 0.76070316 0.33914454
0.07558460 0.75500478 0.84031087
0.41552983 0.16057132 0.24702259
0.49593867 0.16209543 0.83168302
0.50188591 0.66545433 0.33113104
0.38781391 0.77002294 0.77161451
0.97617284 0.47066177 0.39762821
0.91831529 0.41213047 0.00641014
0.91271991 0.08598765 0.49263970
0.97813593 0.91183477 0.07969556
0.58379154 0.41946075 0.50420737
0.50357888 0.38609825 0.01144943
0.47161759 0.89086786 0.48135523
0.41661861 0.91465938 0.00071106
0.00211923 0.17070410 0.16285585
0.08226766 0.17032743 0.75892508
0.02033254 0.63719799 0.27388436
0.01679565 0.63796676 0.77266800
0.50184063 0.24988666 0.13699712
0.50202207 0.16641990 0.66981934
0.50566629 0.66866116 0.16142547
0.50327852 0.66488300 0.82805303
0.35758304 0.22910672 0.53045665
0.23217904 0.13868347 0.97775846
0.27415023 0.70576827 0.60723719
0.36460663 0.73082157 0.01676434
0.72982069 0.13942876 0.47811335
0.74053018 0.17146593 0.09331583
0.71490683 0.64183443 0.49476035
0.73089651 0.63763034 0.98410931
0.98754918 0.32731214 0.33447811
0.92195743 0.33895689 0.74297775
0.91371497 0.74760916 0.33139636
0.02308044 0.86441595 0.73524348
0.47781666 0.26501694 0.36620832
0.48942242 0.33561394 0.83354756
0.49559223 0.83037867 0.33058686
0.48968309 0.83115182 0.66373060
0.51498387 0.01856312 0.39185608
0.49725294 0.99484739 0.89052140
0.48617234 0.47956213 0.38482495
0.58734875 0.49310917 0.91889871
0.07662127 0.08695570 0.49231044
0.97767880 0.96834908 0.89695038
0.02653242 0.61044809 0.47291078
0.08455301 0.42079650 0.00966405
0.41165542 0.08070315 0.99524994
0.39078182 0.03267441 0.52094032
0.41468812 0.50334174 0.92384346
0.42140055 0.41337693 0.50485658
0.89384489 0.03236857 0.02126734
0.08746548 0.93080668 0.50801255
0.99061207 0.47106094 0.89066775
0.88589941 0.52029276 0.51654072
0.58340734 0.08035480 0.99675313
0.53347037 0.11343582 0.49664600
0.52440173 0.61270327 0.98772594
0.41513717 0.58069612 0.49907379
0.03210036 0.10849048 0.97571922
0.92338009 0.91549181 0.50255803
0.07808918 0.58309777 0.99961920
0.98836588 0.53739207 0.61233007
0.33093824 0.91173140 0.24629939
0.23283945 0.88949686 0.74068278
0.22830012 0.61704829 0.27323566
0.27217681 0.51870074 0.63840156
0.73588176 0.11403220 0.26419945
0.77732044 0.01322504 0.63887508
0.77140962 0.52083445 0.13477457
0.74403362 0.58516817 0.66330625
0.16830388 0.00271377 0.34328849
0.25893271 0.11713377 0.73785316
0.24149850 0.39535525 0.21546258
0.25856879 0.48962534 0.86645038
0.74674394 0.88879589 0.22298952
0.72405452 0.01436047 0.86509971
0.74391635 0.50416630 0.36174593
0.74888604 0.58196072 0.83058073
0.33314968 0.25146480 0.91777183
0.27266590 0.36142462 0.47426042
0.24795015 0.83431675 0.07976579
0.35791262 0.76361985 0.47187560
0.86182277 0.23268119 0.02371972
0.83177124 0.25101332 0.41722589
0.83439492 0.74561811 0.92012913
0.72968926 0.72788109 0.38528026
0.16979616 0.25535971 0.08104687
0.13208102 0.27606120 0.50779447
0.24929539 0.66460296 0.91978706
0.13686268 0.76837474 0.51634512
0.63415000 0.26285650 0.01018331
0.66806406 0.26154139 0.58551336
0.67265137 0.75455647 0.08341175
0.74884428 0.76922150 0.61310306
0.41790245 0.34017674 0.24214944
0.38419306 0.23591309 0.73538336
0.38478530 0.73336646 0.23205062
0.49878681 0.66883783 0.66571605
0.88316583 0.23585089 0.23092188
0.91427050 0.16454870 0.76054430
0.07957812 0.75062131 0.16690157
0.90106460 0.76832954 0.78872428
0.08420264 0.01640391 0.08908099
0.98158857 0.02649958 0.61308842
0.91420339 0.58115517 0.98931997
0.00016720 0.39079408 0.54032787
0.47714723 0.02290520 0.11325040
0.61500157 0.96888055 0.51326268
0.41452832 0.50789135 0.07748343
0.50126594 0.49728286 0.61396885
0.33002051 0.01143633 0.34244207
0.33130215 0.00129683 0.66905450
0.16859259 0.50903911 0.16389992
0.33670338 0.58663022 0.75628463
0.83418406 0.00061488 0.32848241
0.86378596 0.99413992 0.77740652
0.66765650 0.58478169 0.24664191
0.63720244 0.48303226 0.73661829
0.11237474 0.26185370 0.24281370
0.08108667 0.32178860 0.74119570
0.98219396 0.86336488 0.26286802
0.09216692 0.74488021 0.66989396
0.57453997 0.16519989 0.25659465
0.61127262 0.24851095 0.77203276
0.61395188 0.75843187 0.23934352
0.50667530 0.83042558 0.83667178
0.26892648 0.36599187 0.99888442
0.22801547 0.27870790 0.61221228
0.13684762 0.74502200 0.99659294
0.24417222 0.82707592 0.40777155
0.75720720 0.32518965 0.92153424
0.77012987 0.36365501 0.48499877
0.77269648 0.86615530 0.98816527
0.78168709 0.85477290 0.46800171
0.15214112 0.49711230 0.32740209
0.17208773 0.42634422 0.74371141
0.27470963 0.01926713 0.14312359
0.17120899 0.00708786 0.83918190
0.83007677 0.41630932 0.25235887
0.75243245 0.41373668 0.66987098
0.66274286 0.00427118 0.16848724
0.64028519 0.97676799 0.72693776
0.32882740 0.23931906 0.08113246
0.22380498 0.14217143 0.49738635
0.24541846 0.67133447 0.09061501
0.25434814 0.84360273 0.58033860
0.74616679 0.33763024 0.08375175
0.82218627 0.24191847 0.58619634
0.82671462 0.74020815 0.07663778
0.85543158 0.71279615 0.51169250
0.24116913 0.23739653 0.38565132
0.16549293 0.26167166 0.91668295
0.23367107 0.64986395 0.46001110
0.25519031 0.82636481 0.91449124
0.66190384 0.26123892 0.41645826
0.74685024 0.17173265 0.92091174
0.63717437 0.78104028 0.51734628
0.66428682 0.75513612 0.91647392
0.13332910 0.13310026 0.37459301
0.12882939 0.13096540 0.88083028
0.12401642 0.62873664 0.37507642
0.12150485 0.62994314 0.87672958
0.62327788 0.12176954 0.38083424
0.62729583 0.12380876 0.86820952
0.63026918 0.62812636 0.37520511
0.62610151 0.62435214 0.88050997
0.38110718 0.37419510 0.37712542
0.36651736 0.38113232 0.88185222
0.37253113 0.87789803 0.37871556
0.37865000 0.87286867 0.87187706
0.86647026 0.38162012 0.38053054
0.88187540 0.37380159 0.87486202
0.88436408 0.87945118 0.37226294
0.86838446 0.87879534 0.87522023
0.37369206 0.11695392 0.12344511
0.36981496 0.12996473 0.63173014
0.37548396 0.63376252 0.12762808
0.37595258 0.61927015 0.62664073
0.87134696 0.13401024 0.12714472
0.87544094 0.12004998 0.62787159
0.87543441 0.61763232 0.12281836
0.87500072 0.62055346 0.62240451
0.12644420 0.37617083 0.13365043
0.12463044 0.37552863 0.61600730
0.11763650 0.87597075 0.11582980
0.12679261 0.87388482 0.63002170
0.61428513 0.36638617 0.11978472
0.62069851 0.38346139 0.63197621
0.62828257 0.87386253 0.13509587
0.61993100 0.87481653 0.62488611
0.05189904 0.43106461 0.31311691
0.06320872 0.42966397 0.80221315
0.06134277 0.94713570 0.29952179
0.06517758 0.94759583 0.81214060
0.56076645 0.44142371 0.29657136
0.55329032 0.44171052 0.81425612
0.55468694 0.93957185 0.31444944
0.55470283 0.93914778 0.80398371
0.44008373 0.05772723 0.31123846
0.43631929 0.05502999 0.80798028
0.44566462 0.55719953 0.30107656
0.43626890 0.56069558 0.81900199
0.94372018 0.06135218 0.30709013
0.95053396 0.06268581 0.82030025
0.94336512 0.55284309 0.31447923
0.94933876 0.54712035 0.80839354
0.44170614 0.44774422 0.18194929
0.43711520 0.44320725 0.69983929
0.44088382 0.94021942 0.19422610
0.43485922 0.93980645 0.69001167
0.93691998 0.43961781 0.19412769
0.94926474 0.44432727 0.68194579
0.94170743 0.94960517 0.18977834
0.94723803 0.95068449 0.70027786
0.06202969 0.07031699 0.19255364
0.06045158 0.06781102 0.69565006
0.05680147 0.55114018 0.19859723
0.06763558 0.55659718 0.69618613
0.55582943 0.05682641 0.19740823
0.55389414 0.05511085 0.69266117
0.56314845 0.56156564 0.18393375
0.55146465 0.55994559 0.70250402
0.29844990 0.06268672 0.44827464
0.30804978 0.05196102 0.93796418
0.31494476 0.56316676 0.43237572
0.30703460 0.56248244 0.94953181
0.80955128 0.05948369 0.43411751
0.80036507 0.06521655 0.94698014
0.79550939 0.56408294 0.45190564
0.80540450 0.55376613 0.93650449
0.30310882 0.45472604 0.07380043
0.31224323 0.44508429 0.55112850
0.30938366 0.93603935 0.05697131
0.30874803 0.94741383 0.56055524
0.80869216 0.43773637 0.05423965
0.80249794 0.44745161 0.56464485
0.80774413 0.95531710 0.06588264
0.81444219 0.93832981 0.55021778
0.19915653 0.44730235 0.43451589
0.19168562 0.44713365 0.95462796
0.19098816 0.93509161 0.44361098
0.19663150 0.93320781 0.93438412
0.68766705 0.44247485 0.44725607
0.69458364 0.43157401 0.93367784
0.69926431 0.93571374 0.43546205
0.68817881 0.94709335 0.95565828
0.19577458 0.05131986 0.05386701
0.17826651 0.05130413 0.55750558
0.18482923 0.57089383 0.06174705
0.20080658 0.56475304 0.54973584
0.68372802 0.06750763 0.06679271
0.69751796 0.05037550 0.55294881
0.68982813 0.54783061 0.05113159
0.67655388 0.55690106 0.56584011
0.43307053 0.29764709 0.05125459
0.44111626 0.31142446 0.56877809
0.44597564 0.81136780 0.05795535
0.43631550 0.80092445 0.55512013
0.94519131 0.30927343 0.06663673
0.92870766 0.29585052 0.55799416
0.93158806 0.80178452 0.06118590
0.92772860 0.80557175 0.55398123
0.04137524 0.31713314 0.44384832
0.06025472 0.31577600 0.94840320
0.05509226 0.81928724 0.44757979
0.04984906 0.80901765 0.94524133
0.55584036 0.31336641 0.44869248
0.54811716 0.30252048 0.93626720
0.55193078 0.80799422 0.44043809
0.56577216 0.81937658 0.94385932
0.44800198 0.19214391 0.45783408
0.43265823 0.18288612 0.93239059
0.44232843 0.68537067 0.44005567
0.45339747 0.69824404 0.94146265
0.93623136 0.18915683 0.43091240
0.94954432 0.19561958 0.95022390
0.94704975 0.69347162 0.43643574
0.93925926 0.68984981 0.93871408
0.06606363 0.19455555 0.06251645
0.05397550 0.19241008 0.54814469
0.05183950 0.69021918 0.05933732
0.05050972 0.69752966 0.55968187
0.55094356 0.18560808 0.04920355
0.56473010 0.20057364 0.57058719
0.56690185 0.69949478 0.05847109
0.56145095 0.69247176 0.55665751
0.31764163 0.30766958 0.18238046
0.30248382 0.31519478 0.69608012
0.30118878 0.81204296 0.18845439
0.30103981 0.80085275 0.69244285
0.79733988 0.31409207 0.19221867
0.81682816 0.31127144 0.68953822
0.81913947 0.79876446 0.18407260
0.81817274 0.80374745 0.70346502
0.31069170 0.18914009 0.30177097
0.29912491 0.20103501 0.81275739
0.29815422 0.70543497 0.31156871
0.30589223 0.69108740 0.81202949
0.79740905 0.20325783 0.31058743
0.80797904 0.19491707 0.81028671
0.81225209 0.68514086 0.30634099
0.81226390 0.68607874 0.81460836
0.19674754 0.19627883 0.18548227
0.18495463 0.20344038 0.69659637
0.18457646 0.69662615 0.19401793
0.19022963 0.68261156 0.69347879
0.68057232 0.19727574 0.19782095
0.69334405 0.20539721 0.69421013
0.69740819 0.68767255 0.18606079
0.69762509 0.69342227 0.69232615
0.20507872 0.31298968 0.30031512
0.18402789 0.32235122 0.81087365
0.18189975 0.82071024 0.30375026
0.18674966 0.80419922 0.80972341
0.68032309 0.32056590 0.30891943
0.70235109 0.31998475 0.80965045
0.70516506 0.80600761 0.29958204
0.69392686 0.80479856 0.80941396
0.00477463 0.99762711 0.00545894
0.99713513 0.00423932 0.50030128
0.99694851 0.49857716 0.00183118
0.00097154 0.50244793 0.50493047
0.49740018 0.00036985 0.00275673
0.50251456 0.00147785 0.50261342
0.50238353 0.50036580 0.00004289
0.49845233 0.49890814 0.49899701
0.99716205 0.25012730 0.24877025
0.99481132 0.24763281 0.75113333
0.00218063 0.75011880 0.25527429
0.00636519 0.75054988 0.74583985
0.49244342 0.24864303 0.25201968
0.49711376 0.24885748 0.75365152
0.49940006 0.74884165 0.24732645
0.49941138 0.75185314 0.74901188
0.25039275 0.99676494 0.25751255
0.24751477 0.00282532 0.74912846
0.24346122 0.50469789 0.25383193
0.25503400 0.50419895 0.75194351
0.74803347 0.00147983 0.24936014
0.75087070 0.00068383 0.75225264
0.75289837 0.50422734 0.24747999
0.75104751 0.50353513 0.74471784
0.24943511 0.25191484 0.99735392
0.24646763 0.25364378 0.50056161
0.25102284 0.74817720 0.00152967
0.24859970 0.75632156 0.50432889
0.74830895 0.24959326 0.00699777
0.74583086 0.25173222 0.49790949
0.74823376 0.75182237 0.99574905
0.74699561 0.75049724 0.49907286
0.00274540 0.00983187 0.24358271
0.00713198 0.00867542 0.75714703
0.99747974 0.49225998 0.25475317
0.00855150 0.49295781 0.74750859
0.49765890 0.99727270 0.25438283
0.49346049 0.99737247 0.74896334
0.50377713 0.50214630 0.23988696
0.49298737 0.50159944 0.76041425
0.25188239 0.99134630 0.99572391
0.24361587 0.99745768 0.50235712
0.24717098 0.50926002 0.01163148
0.25840801 0.50627132 0.49228495
0.74421187 0.01036333 0.01040879
0.75665542 0.99641410 0.49198862
0.74958625 0.49131026 0.99275845
0.73926011 0.50243729 0.50908703
0.00678532 0.25483985 0.00825436
0.98891732 0.24729782 0.49343216
0.99174633 0.74720208 0.00111936
0.99509989 0.75666513 0.49826895
0.49006996 0.24068659 0.99079243
0.50360756 0.25580095 0.51259891
0.50901065 0.75827560 0.00019768
0.49838589 0.74503393 0.49833134
0.25939459 0.25158259 0.24174500
0.24178714 0.26149338 0.75648844
0.24094446 0.75911712 0.24987112
0.24344571 0.74327320 0.75338078
0.73760011 0.26016202 0.25270042
0.75696061 0.25904405 0.75127702
0.75982759 0.74298847 0.24284662
0.75557251 0.74467350 0.75657628
Direct configuration=      2
0.08845932 0.91708829 0.98385611
0.98694732 0.98082057 0.38891277
0.98064619 0.51911958 0.11332231
0.11347240 0.48240747 0.51563998
0.58633953 0.92329586 0.01337704
0.48528707 0.02601181 0.61257685
0.58120725 0.49359172 0.08215421
0.57852936 0.58217479 0.49632346
0.35803301 0.52525029 0.22270597
0.33276741 0.41533054 0.75404812
0.16632988 0.91669381 0.23541791
0.33315190 0.99672938 0.82961308
0.83842949 0.58061906 0.25278390
0.86642762 0.51214749 0.72921417
0.83411548 0.00909655 0.17242207
0.77707153 0.89079815 0.77310923
0.00185685 0.33722315 0.17336272
0.98205069 0.21856236 0.63977445
0.92561246 0.74071897 0.17053249
0.92216984 0.74498955 0.66900192
0.57610431 0.32785891 0.25199373
0.49434132 0.33847637 0.67287146
0.50102767 0.83757635 0.16913878
0.61752178 0.76219785 0.73339077
0.28554435 0.47866078 0.35446814
0.17420405 0.58382576 0.75434375
0.22858475 0.10765288 0.26240623
0.15803259 0.00784248 0.67337472
0.67218204 0.42332308 0.24111287
0.75995021 0.42786968 0.83023228
0.66876368 0.98912434 0.33570378
0.72571899 0.11454867 0.76683930
0.00120284 0.16340545 0.33002634
0.98698721 0.27317626 0.86369560
0.08138178 0.75844237 0.33984029
0.08279126 0.75608808 0.83556233
0.41738807 0.16130686 0.24534490
0.50022795 0.16818889 0.83302453
0.50485617 0.66547572 0.32820591
0.38976442 0.76644437 0.76462867
0.97183840 0.47633110 0.39536808
0.91866697 0.41135456 0.00930110
0.91133253 0.08271990 0.49461859
0.97783346 0.91183764 0.08017158
0.58258855 0.42239179 0.50971444
0.48920975 0.38843175 0.99668599
0.47916886 0.89177844 0.48550458
0.41763500 0.91386709 0.00507398
0.00227767 0.16949148 0.16218139
0.08265553 0.17722986 0.75861730
0.02004381 0.63545761 0.27074366
0.01765457 0.63746393 0.76882012
0.50900389 0.25845478 0.13706391
0.50588130 0.17385329 0.66768855
0.50521814 0.66779853 0.16224616
0.51862935 0.64172153 0.78120121
0.35914603 0.22861215 0.52809346
0.23458742 0.13794538 0.97949596
0.25551784 0.67049746 0.58260456
0.36547020 0.73317305 0.01697036
0.72897729 0.13816220 0.48266159
0.74069368 0.17053973 0.09314640
0.71666615 0.64285888 0.49992866
0.72840147 0.63663011 0.98426320
0.98606402 0.32508061 0.33476092
0.91256095 0.33461976 0.74715521
0.91550305 0.74602979 0.33443337
0.01876102 0.86482480 0.73226643
0.47775029 0.27088579 0.36459624
0.48818416 0.33415496 0.83432460
0.49469923 0.83199824 0.32875687
0.51421118 0.86306991 0.71411999
0.51692037 0.01820125 0.39201175
0.48877034 0.97787789 0.89053696
0.48709977 0.48018787 0.38507311
0.58714923 0.49218228 0.91727179
0.07729175 0.08314396 0.49312601
0.97695325 0.96717334 0.89848442
0.02843658 0.61042674 0.47182966
0.08493490 0.42147980 0.00932234
0.41335242 0.08047190 0.99382877
0.38653230 0.02394098 0.51003554
0.41504053 0.50749210 0.92086633
0.42186038 0.41455000 0.50306853
0.89491318 0.03273831 0.02277269
0.08389890 0.92553092 0.50982245
0.98693353 0.47051083 0.89142915
0.88533117 0.52558452 0.51820492
0.58156302 0.08175243 0.99560653
0.53131051 0.11645657 0.49071949
0.52714152 0.61425953 0.98242052
0.41596397 0.58506250 0.49272579
0.03181695 0.10740602 0.97379793
0.92380986 0.91197898 0.50591459
0.07708904 0.58295186 0.99570493
0.99086479 0.53085705 0.61307792
0.33154520 0.91090249 0.24695123
0.23207653 0.88850113 0.73777149
0.22836700 0.61463902 0.26435676
0.23970321 0.48552676 0.63642112
0.73457156 0.11364795 0.26717091
0.78746744 0.01223019 0.64820938
0.76983280 0.51969502 0.13521497
0.74875815 0.58357302 0.66310478
0.16753252 0.00222644 0.34333766
0.23591921 0.11411263 0.76790042
0.23954610 0.39001827 0.22486324
0.26012154 0.49056433 0.86295295
0.74513469 0.88879698 0.22496068
0.66713198 0.99902541 0.84595634
0.73169712 0.51491338 0.36208230
0.75090456 0.58386762 0.82872055
0.33261969 0.25174991 0.91858091
0.27147734 0.36361825 0.47737131
0.24677635 0.83385710 0.07811401
0.36092334 0.76384514 0.47348131
0.86269671 0.23196573 0.02352182
0.83224014 0.24883832 0.41799846
0.82851876 0.74371484 0.92183711
0.73333944 0.72691977 0.38701716
0.16994479 0.25413448 0.08284919
0.13300807 0.27632442 0.50982243
0.25223715 0.66816772 0.91266739
0.13902242 0.76739363 0.50979042
0.63448319 0.26328245 0.01054581
0.66996374 0.25941112 0.58585516
0.67055454 0.75440270 0.08519895
0.74176303 0.77678510 0.61459414
0.41738278 0.34042191 0.24161145
0.38420314 0.23151003 0.73270573
0.38609152 0.73340325 0.23028587
0.48221952 0.71965418 0.63741644
0.88352961 0.23456601 0.23003205
0.91418667 0.16270817 0.76178393
0.07729981 0.75043318 0.16516425
0.92432605 0.75675673 0.82755918
0.08474912 0.01599221 0.08955944
0.98294325 0.02478134 0.61486733
0.91277716 0.58093804 0.98917806
0.98711815 0.38921350 0.51868187
0.47785622 0.02317985 0.11265787
0.61286544 0.97243643 0.52596412
0.41589530 0.50959191 0.07767963
0.47578530 0.51827440 0.61280697
0.33062941 0.01245148 0.34100820
0.32579710 0.00647689 0.66823270
0.20520744 0.49696299 0.14274896
0.33786583 0.58126825 0.74449584
0.83393481 0.99981204 0.33030243
0.83325298 0.01255552 0.83485394
0.66672898 0.58477686 0.24384976
0.63788451 0.48043346 0.73648350
0.11235212 0.24955207 0.25087097
0.05344783 0.34233108 0.72442926
0.98086541 0.86206952 0.26375244
0.08594957 0.74233925 0.66508704
0.57461806 0.16620544 0.25674201
0.60940667 0.26986224 0.75145537
0.61456415 0.75871188 0.24053251
0.49663892 0.78463417 0.86098747
0.26427560 0.36639670 0.99885531
0.22995055 0.27439930 0.61453522
0.13764771 0.74098811 0.98957491
0.24567778 0.83283035 0.40884960
0.75584262 0.32426597 0.92177139
0.76898689 0.36357434 0.48361205
0.77222323 0.86471249 0.98836930
0.78009074 0.85598012 0.46938476
0.13857436 0.50308535 0.29348255
0.17343119 0.41927640 0.75401346
0.27483937 0.01884990 0.14353770
0.16640647 0.99890560 0.83936048
0.82946390 0.41718245 0.25522090
0.75290457 0.41382949 0.66875298
0.66450891 0.00642079 0.16755105
0.64344831 0.97904512 0.70679020
0.33014307 0.23955361 0.08180062
0.22203837 0.14233145 0.49941274
0.24591706 0.67287032 0.08759179
0.25788336 0.83410770 0.58112507
0.74698752 0.33663831 0.08518914
0.82381371 0.24154647 0.58477396
0.82477863 0.74015877 0.07828749
0.85737246 0.71584306 0.51801977
0.24514103 0.23574957 0.38766824
0.16593209 0.25927074 0.91833256
0.24570447 0.66810012 0.41793881
0.25908670 0.82809408 0.91260764
0.66145161 0.26075617 0.41735228
0.74779451 0.17092965 0.92144128
0.63893696 0.78367242 0.51199620
0.66471743 0.75596518 0.91571371
0.13228870 0.13263451 0.37398947
0.13194706 0.12814359 0.87840032
0.12336846 0.62610905 0.36985718
0.12310963 0.63049978 0.87461727
0.62459609 0.12163168 0.38101169
0.62679427 0.12693156 0.87256615
0.63243641 0.62714160 0.37386169
0.62538024 0.62527377 0.87722760
0.37969184 0.37736018 0.37517829
0.36757438 0.38238740 0.88464500
0.37352130 0.88040931 0.37993312
0.38484637 0.87350337 0.87197809
0.86790489 0.37988778 0.38299774
0.88111567 0.37350988 0.87697193
0.88286961 0.87792664 0.37411749
0.86853027 0.87684422 0.88063649
0.37355085 0.11608214 0.12261765
0.37959417 0.12695738 0.62491699
0.37442798 0.63355960 0.12740387
0.38156577 0.62551931 0.62124981
0.87160566 0.13305801 0.12722740
0.87614655 0.12101508 0.62774446
0.87564474 0.61753376 0.12237288
0.87992229 0.61827640 0.62642167
0.12942389 0.37616853 0.13262014
0.13270749 0.37907984 0.61718721
0.11733090 0.87516400 0.11610193
0.12803710 0.87213414 0.63027611
0.61583601 0.36584647 0.12180734
0.62220662 0.37858728 0.63525504
0.62971766 0.87490086 0.13614258
0.62639474 0.86806697 0.62614800
0.04686699 0.42993362 0.31507314
0.06496256 0.43044035 0.80759592
0.06070812 0.94539596 0.29996457
0.05938503 0.94535447 0.81241455
0.56226447 0.44227846 0.29677072
0.55204262 0.43780925 0.81400588
0.55570015 0.94005412 0.31388237
0.55974743 0.94295674 0.79803167
0.44175297 0.05903850 0.31174598
0.44262341 0.05994130 0.81471080
0.44811030 0.55816646 0.30060444
0.43606796 0.55893853 0.81470908
0.94311841 0.05920889 0.30842001
0.94576767 0.06142542 0.82427661
0.94019761 0.55374739 0.31135994
0.94978674 0.54753712 0.80827246
0.44288968 0.44765895 0.18167635
0.43524525 0.44159336 0.69754377
0.44138564 0.94123326 0.19470308
0.43818538 0.95184833 0.69105918
0.93510298 0.43855309 0.19244974
0.95502607 0.43807609 0.68638981
0.94094728 0.94825515 0.19025225
0.94323875 0.95109916 0.69950904
0.06131249 0.06902455 0.19336160
0.05597200 0.06938275 0.70078162
0.05977635 0.54544030 0.20089952
0.06911578 0.55453722 0.69689080
0.55645510 0.05795140 0.19674595
0.55822335 0.06633072 0.69452337
0.56352095 0.56093026 0.18176343
0.55121882 0.55562878 0.70124706
0.29368897 0.06148509 0.44681226
0.30895222 0.05034946 0.93782584
0.31282924 0.56650000 0.43277882
0.30757551 0.56478837 0.94378379
0.80711592 0.05737640 0.43756618
0.80507865 0.06656596 0.94613730
0.79465173 0.56501803 0.45232343
0.80433512 0.55397739 0.93665306
0.30101294 0.45862490 0.06987414
0.31467131 0.44882836 0.55070654
0.30945590 0.93510117 0.05787019
0.30543946 0.94569670 0.56037947
0.80795601 0.43763639 0.05435747
0.80390863 0.44706197 0.56352843
0.80737597 0.95501758 0.06367704
0.81469819 0.93623584 0.55381877
0.19922830 0.44953855 0.43525730
0.19118731 0.44938627 0.94968847
0.18647149 0.93485360 0.44424541
0.19704539 0.93110479 0.93575043
0.68615141 0.44337633 0.44850278
0.69408496 0.43096462 0.93333341
0.69456903 0.93633117 0.44337908
0.69038366 0.94612892 0.95165818
0.19634903 0.05062820 0.05362702
0.17713905 0.05115809 0.55915897
0.18476243 0.57371455 0.05581039
0.19752577 0.56243166 0.55326641
0.68476145 0.06720667 0.06204573
0.70028031 0.05035789 0.56153443
0.68820442 0.54665618 0.05081651
0.67763148 0.55572443 0.56815730
0.43335690 0.29925336 0.05293846
0.44071537 0.31195176 0.56635973
0.44672242 0.81150395 0.06348119
0.44210501 0.79948484 0.55231466
0.94676418 0.30769870 0.06789908
0.93153527 0.29348755 0.55906723
0.93198581 0.80118962 0.06102849
0.93328095 0.80346874 0.56048973
0.04270338 0.31235100 0.44227275
0.06197655 0.31554620 0.94950777
0.05293460 0.81873708 0.44715359
0.04920265 0.80885293 0.94245537
0.55675285 0.31735250 0.44795001
0.54782601 0.30310539 0.93682533
0.55419653 0.81067286 0.43432693
0.56759316 0.82036429 0.95003598
0.44857606 0.19580105 0.45297067
0.43281052 0.18445352 0.93331078
0.44394184 0.68799998 0.43239828
0.45534735 0.70277182 0.94265158
0.93607327 0.18576422 0.43280070
0.95096699 0.19611115 0.94911377
0.94584319 0.69258129 0.44024826
0.93719600 0.69136240 0.93692623
0.06701483 0.19256224 0.06171196
0.05596961 0.18979936 0.54872617
0.05187044 0.68963422 0.05599045
0.05824903 0.69459091 0.55528885
0.55079989 0.18663428 0.05072976
0.56522725 0.20115456 0.56614086
0.56666414 0.69701858 0.06130257
0.56445627 0.69294177 0.54850686
0.31583335 0.30692277 0.18400511
0.30319743 0.31314060 0.69774541
0.30090437 0.81108836 0.18861576
0.30403656 0.80410133 0.69145634
0.79840683 0.31431790 0.19372760
0.81381434 0.30985748 0.68783840
0.81876524 0.80007626 0.18476500
0.82001861 0.80491895 0.70080676
0.31217561 0.18681943 0.30186436
0.30288812 0.19942261 0.81421509
0.29814738 0.70098797 0.30782868
0.30825208 0.68674505 0.80380358
0.79896648 0.20212674 0.31069524
0.80717624 0.19464991 0.81017196
0.81381170 0.68529756 0.30601520
0.81889772 0.68634822 0.81463935
0.19726622 0.19308166 0.18619518
0.18813940 0.19900032 0.69847534
0.18349588 0.69711301 0.19100236
0.18980031 0.68523347 0.68857126
0.68159883 0.19680633 0.19845155
0.69140926 0.20322451 0.69508837
0.69808606 0.68830721 0.18667944
0.70346372 0.69068455 0.69444462
0.20356771 0.30774202 0.30294616
0.18495423 0.31723958 0.81397176
0.18222774 0.81791119 0.30488909
0.19181385 0.80254384 0.80882837
0.68183975 0.31955486 0.31030571
0.70205494 0.31969875 0.80969193
0.70558514 0.80530010 0.30156118
0.70010699 0.80455663 0.80932302
0.00551888 0.99720375 0.00624396
0.99632913 0.00192701 0.50154671
0.99631527 0.49881626 0.00200276
0.99908692 0.50251202 0.50311351
0.49815645 0.99926857 0.00186048
0.50180519 0.00442350 0.50354460
0.50134905 0.50240851 0.99774170
0.49709980 0.50132899 0.49922492
0.99716334 0.24794504 0.24923982
0.99195248 0.24958571 0.75033095
0.00167050 0.74896987 0.25512758
0.00649857 0.75044271 0.74827759
0.49319728 0.25040931 0.25142665
0.49569642 0.25245870 0.75164371
0.50002220 0.74943627 0.24648322
0.50343301 0.75300238 0.74850877
0.25009383 0.99489968 0.25767507
0.24518088 0.00141726 0.75151739
0.24682707 0.50259952 0.25003151
0.25375963 0.50028509 0.74941250
0.74794555 0.00132305 0.25078134
0.74498958 0.00110875 0.75770973
0.75162555 0.50460149 0.24842310
0.75240775 0.50239015 0.74500170
0.24962303 0.25154240 0.99895533
0.24732259 0.25362948 0.50194993
0.25226212 0.74869452 0.99843719
0.25022244 0.75344596 0.49710404
0.74896070 0.24928957 0.00763307
0.74635154 0.25118937 0.49783058
0.74560921 0.75059621 0.99786754
0.74876463 0.75101155 0.50062517
0.00213773 0.00827152 0.24434872
0.00034707 0.00750220 0.75856857
0.99454516 0.49065202 0.25427362
0.01105759 0.49242027 0.75074389
0.49878153 0.99842564 0.25436133
0.49795023 0.00775196 0.75003688
0.50528111 0.50215394 0.23932655
0.49268920 0.49734633 0.75858246
0.25250352 0.99031169 0.99591584
0.24028488 0.99630858 0.50278873
0.24672073 0.51270728 0.00489138
0.25735300 0.50866797 0.49317766
0.74605461 0.01032850 0.00583765
0.75568381 0.99528419 0.49805093
0.74878144 0.49083370 0.99259430
0.73960373 0.50246984 0.50949718
0.00805653 0.25407902 0.00844701
0.99032567 0.24368305 0.49408181
0.99181362 0.74807744 0.99970563
0.99739242 0.75414263 0.50118320
0.48997752 0.24178862 0.99235290
0.50400139 0.25802826 0.50953958
0.51013096 0.75906005 0.00565929
0.50149046 0.74601356 0.49087403
0.25920677 0.24868891 0.24278938
0.24322296 0.25887249 0.75862043
0.23981469 0.75786938 0.24855896
0.24657955 0.74326800 0.74801037
0.73883091 0.25943800 0.25351620
0.75520933 0.25759291 0.75107798
0.76038182 0.74344229 0.24376395
0.76161651 0.74448936 0.75643944
Direct configuration=      3
0.11280620 0.97077272 0.01201259
0.98824546 0.98303711 0.38774989
0.98146199 0.51886046 0.11471436
0.11217421 0.48383636 0.51670650
0.58495028 0.92180530 0.01459309
0.48325789 0.02518637 0.61098454
0.58277632 0.49575858 0.08286258
0.53983273 0.60646758 0.48034502
0.35763030 0.52504875 0.22325626
0.33171292 0.41436267 0.75022311
0.16621820 0.91678820 0.23477220
0.33304159 0.99545084 0.82917457
0.84025709 0.57926894 0.25258486
0.86610051 0.51320004 0.73117828
0.83496966 0.00830787 0.17104827
0.77448788 0.88944731 0.76989321
0.00343198 0.33750313 0.17545191
0.98635783 0.21963923 0.64065828
0.92526817 0.74090978 0.17044344
0.92272437 0.74520529 0.66910419
0.57612164 0.32727960 0.25045998
0.50237802 0.33968583 0.67876974
0.50152299 0.83841613 0.16913671
0.61689215 0.76152649 0.73346583
0.28497743 0.47727241 0.35616585
0.17262993 0.58260847 0.75624350
0.22654704 0.10738005 0.26573846
0.15838803 0.00586138 0.67281168
0.67338040 0.42271222 0.24282513
0.76166240 0.42975771 0.83397218
0.66954163 0.98847518 0.33552317
0.73006221 0.11428427 0.76536503
0.99835241 0.16283891 0.33192956
0.98570898 0.27091639 0.86606410
0.08346373 0.75853576 0.33694125
0.08263411 0.75464394 0.83892294
0.41766230 0.16119598 0.24437896
0.49576829 0.16581432 0.83360523
0.50413624 0.66633332 0.32712713
0.38875070 0.76638729 0.76546226
0.97142700 0.47207368 0.39819105
0.91994786 0.41001843 0.01043210
0.91328170 0.08107754 0.49631687
0.99014118 0.91196237 0.08100384
0.60315210 0.45973665 0.52543159
0.50195056 0.38697565 0.00959120
0.47512405 0.89188724 0.48212783
0.41984512 0.91262152 0.00435784
0.00658074 0.17560740 0.17107756
0.08154887 0.17238968 0.75885558
0.01823107 0.63546154 0.27256831
0.01890024 0.63708941 0.76996986
0.50717561 0.25556252 0.13767704
0.50643313 0.17592591 0.66705107
0.50520823 0.66849664 0.16226428
0.51848953 0.64142369 0.78290002
0.36308783 0.23529505 0.53358305
0.23469151 0.13675152 0.98069546
0.24877707 0.66976172 0.58692388
0.36534612 0.73250755 0.01779894
0.73034839 0.13787502 0.48368088
0.74256463 0.16864219 0.09312348
0.70297456 0.64371063 0.49890776
0.72966309 0.63526110 0.98417867
0.98694593 0.32622688 0.34039391
0.91756453 0.33591745 0.74570524
0.91597129 0.74543344 0.33502072
0.01954835 0.86485541 0.73565148
0.48260960 0.26730333 0.36677536
0.48636591 0.33376583 0.83645824