Li192 P32 S160 Cl32
1.0
20.312311 0.000000 0.000000
0.000000 20.312311 0.000000
0.000000 0.000000 20.312311
Li Cl S P
192 32 160 32
Direct configuration=      1
0.09873993 0.89791708 0.00789708
0.09634476 0.01552424 0.42568403
0.91236274 0.45822511 0.07939804
0.01829838 0.46173321 0.61985645
0.58513953 0.91187694 0.00013599
0.40424246 0.00117317 0.56255406
0.59892109 0.47010020 0.03928481
0.61895075 0.47319655 0.54872888
0.26628068 0.38715837 0.30708251
0.33809463 0.41910067 0.73150267
0.30129547 0.92408272 0.20115839
0.26624594 0.92697119 0.85342267
0.81577163 0.57190140 0.20293098
0.79140979 0.45519734 0.64183202
0.79269364 0.10952732 0.20603905
0.78072027 0.90251151 0.80808184
0.01455001 0.34423164 0.15410824
0.00815154 0.28587775 0.64185444
0.89995648 0.71417008 0.20694381
0.03797725 0.64073312 0.75414580
0.46084894 0.33195741 0.28141000
0.53640711 0.29338970 0.63279623
0.57476685 0.77814824 0.16383634
0.52314172 0.67856430 0.64638326
0.23438651 0.59106098 0.31958559
0.21145768 0.61337354 0.77337951
0.22442250 0.07700670 0.34680981
0.24463919 0.90145491 0.67942178
0.66500496 0.41641654 0.26127649
0.72722995 0.58237377 0.83119613
0.62982652 0.06126338 0.26418619
0.72682846 0.09425251 0.67330997
0.97525876 0.16683613 0.33269774
0.94187806 0.20908227 0.83590935
0.08116754 0.72354067 0.33738106
0.11295198 0.79100453 0.73125725
0.60778120 0.24119199 0.25726493
0.56155663 0.21500231 0.83580340
0.48667653 0.65766864 0.17653737
0.48669821 0.85790794 0.82578559
0.09095263 0.40468785 0.50216876
0.96392805 0.36823107 0.95695156
0.03847301 0.88745653 0.51935881
0.93513671 0.90981378 0.97319354
0.42629058 0.43236958 0.54470924
0.41169687 0.42224288 0.98316444
0.44280462 0.98085597 0.40980289
0.40983351 0.88665605 0.99449754
0.97749465 0.17448220 0.17091727
0.95636295 0.13114134 0.70639098
0.03328381 0.65598613 0.19047502
0.00565190 0.73434512 0.85682225
0.54500453 0.29667630 0.14367656
0.51627775 0.16328311 0.68810592
0.43431130 0.67582041 0.31038489
0.49687938 0.66991971 0.84248480
0.24976223 0.36390201 0.51706668
0.25333272 0.15084195 0.01820030
0.26615759 0.66591958 0.59080934
0.21857888 0.65642451 0.93125499
0.76273223 0.13010867 0.52543607
0.84058189 0.20084493 0.03533104
0.81527461 0.65854598 0.53643726
0.73388575 0.63889830 0.00752139
0.00464248 0.33941923 0.32133546
0.04828230 0.29987019 0.81211231
0.91417470 0.75869682 0.34403725
0.96307031 0.86113238 0.75473335
0.39919964 0.24279409 0.17934318
0.46733349 0.33350763 0.83389893
0.59836262 0.72729389 0.33083270
0.49229776 0.82983387 0.67324169
0.59102801 0.00885058 0.41683296
0.44706302 0.99934697 0.89128431
0.54283987 0.41884360 0.43170617
0.51098791 0.48913197 0.89973753
0.90099370 0.98366473 0.41453296
0.02309166 0.01550445 0.88969524
0.08891258 0.56551467 0.47885987
0.07142333 0.48846917 0.06562945
0.39083605 0.04119618 0.04791139
0.46252997 0.10321137 0.51824401
0.40769040 0.57148163 0.98489121
0.42417914 0.56223754 0.46790813
0.90525904 0.04674372 0.01108279
0.90522676 0.01339439 0.56401029
0.08555847 0.49070500 0.92255393
0.92740768 0.53682062 0.40513851
0.57238394 0.08425773 0.97379657
0.57185511 0.99196656 0.60081070
0.58280348 0.59902390 0.00617752
0.54381892 0.58521632 0.43760154
0.08089027 0.08735387 0.01138240
0.97293599 0.12090455 0.54779793
0.95613007 0.59640091 0.02342143
0.96585459 0.58788564 0.56096349
0.16286535 0.07099582 0.21336302
0.13610652 0.99764567 0.75890236
0.30634718 0.56127202 0.17808578
0.21547563 0.48938645 0.64217712
0.73360878 0.02974333 0.35856592
0.64193573 0.96609043 0.70620036
0.65349256 0.59077760 0.23355042
0.74962527 0.60027333 0.66661046
0.30832249 0.97058914 0.34161803
0.24380705 0.07161916 0.67101200
0.36504367 0.48466440 0.31876961
0.29636732 0.49221760 0.85061931
0.83897396 0.92647963 0.21857907
0.81209543 0.05494117 0.80557408
0.83575546 0.45106089 0.27491411
0.79901309 0.39713902 0.76970378
0.30117695 0.23558398 0.89314846
0.16975395 0.27200968 0.60372443
0.34615114 0.71000803 0.04596715
0.33910341 0.82508124 0.50915742
0.77890695 0.32511367 0.91372323
0.84632764 0.26443617 0.39832043
0.83447080 0.76153443 0.90428150
0.83883202 0.81445859 0.46231508
0.13617395 0.27659982 0.08174624
0.22171214 0.13678992 0.49611499
0.15919849 0.76151008 0.90827621
0.14279106 0.70985663 0.48036821
0.67655415 0.17158457 0.04944467
0.66649229 0.28433609 0.55628298
0.70802152 0.79665017 0.10785270
0.65495411 0.83090048 0.50744372
0.49080213 0.15541984 0.15018153
0.39143628 0.23766490 0.73926682
0.46977826 0.82524433 0.33068438
0.39952944 0.71727983 0.74040927
0.88745653 0.27920015 0.22710893
0.91900281 0.34223628 0.75357512
0.02950729 0.82101786 0.16566019
0.88894883 0.71531456 0.72872493
0.02946319 0.95714495 0.11900814
0.08034135 0.01458040 0.58712165
0.90456226 0.48885212 0.91212482
0.95059276 0.40875979 0.46184612
0.49580027 0.94691367 0.11505237
0.50388683 0.88268471 0.51889438
0.46718595 0.50270790 0.11181139
0.48132679 0.56327020 0.59966173
0.31455414 0.08232041 0.22692403
0.36461426 0.03699151 0.75213732
0.23474955 0.42557515 0.16737612
0.35895228 0.56760420 0.69990497
0.71655473 0.90547533 0.28885852
0.79953771 0.96280960 0.66568554
0.75040393 0.56425601 0.34442818
0.87109632 0.54553080 0.72389029
0.10530623 0.23852932 0.23968840
0.07906362 0.15638343 0.78018624
0.99863819 0.85375990 0.31012627
0.98848973 0.76946443 0.63627251
0.46708847 0.17194414 0.32014077
0.60104509 0.33247676 0.74153393
0.41003639 0.78205849 0.21133220
0.61977031 0.73756568 0.78202338
0.26882650 0.36311495 0.99588901
0.34961701 0.22738108 0.55813971
0.25540046 0.84391896 0.05407483
0.27914902 0.80383562 0.39393156
0.66204912 0.32667189 0.01676843
0.78056470 0.35922299 0.45689720
0.77932098 0.86733619 0.97291489
0.77882120 0.70040866 0.40953253
0.13706348 0.51937571 0.27732010
0.16801595 0.41370876 0.78631054
0.16073817 0.90982749 0.24096794
0.24209274 0.05998718 0.84933237
0.72214613 0.46275433 0.14745291
0.65524447 0.48551046 0.70471177
0.65454286 0.97475311 0.15350187
0.66981540 0.02353762 0.84205217
0.36544801 0.24612999 0.00432138
0.30746177 0.27139093 0.41241348
0.17332090 0.70087036 0.08681309
0.19106409 0.84644962 0.53632452
0.75761210 0.31281975 0.10415803
0.85564817 0.24032477 0.58670579
0.84930247 0.71502664 0.03861173
0.79193611 0.78385237 0.60262086
0.15596172 0.24109061 0.40922572
0.15864993 0.22882129 0.91084271
0.31660809 0.67442141 0.46317789
0.33217428 0.76976370 0.90761903
0.67056295 0.21954624 0.42734353
0.75977268 0.18706477 0.90228417
0.67290960 0.64982260 0.47718278
0.66658978 0.74886215 0.93127963
0.14955451 0.13254796 0.40844971
0.13824837 0.10738985 0.89409605
0.12933967 0.61635652 0.37436696
0.11648480 0.64350142 0.87897952
0.63904390 0.10981357 0.36440335
0.63790543 0.13474427 0.88240949
0.64557590 0.62122495 0.36922805
0.62474688 0.63278580 0.87914391
0.37359627 0.36613749 0.37600750
0.36787676 0.36466891 0.89478245
0.36646751 0.88533460 0.38860390
0.37943319 0.89257836 0.86700867
0.87115189 0.37891472 0.37924488
0.88264038 0.37548019 0.88445424
0.90057766 0.87325834 0.36612052
0.86022711 0.87582469 0.89335043
0.37381021 0.12215074 0.14153018
0.39016844 0.11695018 0.60495376
0.38052159 0.63834439 0.14211099
0.36949180 0.63556512 0.60851091
0.86492484 0.12892132 0.11864927
0.88305387 0.13245714 0.61637585
0.88313452 0.63250897 0.11042559
0.87111987 0.64421030 0.63982938
0.13159240 0.37200493 0.13755647
0.10294609 0.37487122 0.61685997
0.11619100 0.88372622 0.12407605
0.10385224 0.85300800 0.62009368
0.63801564 0.37075791 0.12200921
0.63836447 0.39399070 0.62986464
0.62187897 0.87424947 0.09991250
0.60829319 0.87649072 0.61197537
0.05368876 0.44803289 0.32122402
0.05337894 0.42369642 0.81220713
0.08388550 0.95882567 0.31618355
0.04541566 0.93894077 0.81169745
0.55519683 0.42644958 0.30584019
0.55944770 0.44668175 0.79132052
0.52539821 0.94690519 0.32871877
0.55980876 0.95052187 0.80236312
0.41645448 0.04786881 0.30630972
0.45775287 0.08243225 0.81452144
0.46949004 0.56801775 0.32144070
0.44148376 0.55688247 0.80673116
0.93677672 0.04915923 0.31346255
0.93598314 0.06725354 0.79982031
0.91624837 0.54042729 0.28590215
0.96713257 0.56227024 0.81568254
0.42620602 0.45700257 0.21339280
0.43195050 0.47961434 0.67261677
0.42431483 0.91889054 0.20240644
0.43761277 0.96374024 0.68867501
0.93484965 0.41681665 0.20180742
0.94126647 0.45114241 0.70482664
0.96685411 0.92116495 0.21223145
0.92463154 0.95020300 0.68758334
0.05351259 0.06275891 0.19549006
0.05594800 0.06889723 0.68951695
0.05473555 0.54226263 0.17915463
0.06026546 0.55509127 0.67611475
0.53612076 0.04220151 0.19036042
0.57588484 0.06900681 0.68814604
0.55758537 0.54677621 0.17994357
0.56671669 0.56415365 0.68796380
0.31440477 0.04736444 0.45714044
0.31839067 0.07323153 0.95552745
0.31836309 0.55330369 0.42372002
0.30423712 0.57238573 0.93823397
0.80465774 0.04909256 0.45354822
0.80296362 0.07743240 0.94407532
0.81059719 0.57542059 0.44452984
0.79817523 0.55450034 0.94145716
0.30030014 0.45691315 0.05575042
0.30312899 0.46009782 0.56937577
0.32241334 0.94364214 0.06060471
0.31405456 0.93201693 0.57360489
0.80025517 0.44200215 0.06300136
0.83019824 0.44895218 0.53340968
0.81070730 0.95740491 0.05375965
0.81124854 0.90676415 0.56194926
0.19726658 0.44639555 0.45321421
0.20106972 0.43571265 0.92606613
0.19173367 0.93395905 0.45968399
0.20022271 0.95377596 0.94831733
0.67935704 0.45543587 0.43394141
0.67995493 0.43286989 0.93978958
0.70130112 0.93458443 0.44767584
0.69527799 0.94526820 0.94005146
0.20323539 0.06041148 0.07432125
0.18994565 0.04509448 0.56887448
0.17753266 0.57055131 0.03764185
0.19880714 0.58004053 0.54437213
0.67529811 0.05168749 0.05229381
0.69513533 0.03657130 0.57459615
0.68866944 0.55062191 0.06273325
0.70305190 0.55139965 0.56234060
0.43538238 0.30304411 0.06258499
0.45272966 0.30698117 0.54869469
0.42668408 0.80619936 0.06595940
0.44444425 0.78368018 0.56333773
0.94542722 0.29366835 0.06185220
0.94657196 0.31933555 0.54568412
0.94205248 0.82315788 0.06426487
0.93874534 0.81855348 0.54062704
0.05436629 0.31257645 0.43295986
0.05319261 0.29783790 0.93334148
0.04089654 0.79708641 0.42250607
0.03963881 0.81820109 0.92947766
0.58015683 0.29475060 0.43987870
0.54873367 0.31443206 0.94120006
0.54537858 0.80993838 0.43394032
0.54647796 0.78822302 0.93923434
0.44425488 0.19219862 0.44345577
0.45914408 0.18744136 0.93351303
0.45561469 0.68202537 0.42914926
0.43000761 0.68168596 0.94721600
0.94220180 0.19313055 0.44294418
0.94780161 0.16383491 0.95492146
0.91055797 0.70047859 0.43917859
0.93097594 0.69755775 0.95385059
0.06002775 0.18640942 0.06708972
0.05172852 0.20270656 0.55414243
0.05474866 0.69812840 0.05898565
0.04188068 0.67669829 0.53643978
0.56948740 0.20361082 0.06415612
0.56831129 0.18164271 0.54726796
0.54335922 0.68778812 0.07217783
0.57075423 0.68283695 0.54227252
0.31409851 0.31971217 0.21601032
0.30364018 0.29677704 0.68041514
0.28711894 0.80793522 0.18104309
0.31520538 0.81234570 0.70287040
0.78974324 0.34758476 0.22266184
0.81190478 0.31399502 0.67717251
0.81285638 0.80817592 0.19886096
0.82625223 0.81581790 0.72041674
0.30564971 0.18486305 0.31345793
0.30560814 0.17486060 0.79337532
0.31436630 0.69687810 0.32012120
0.30596056 0.68854686 0.81455035
0.82357381 0.20515175 0.29029293
0.80801106 0.18708758 0.78864621
0.80695460 0.66693681 0.28342000
0.81009652 0.68098853 0.80898758
0.19728228 0.18754540 0.18204328
0.16925067 0.19916411 0.70764710
0.19892634 0.66913679 0.21565580
0.19262110 0.69625444 0.69170120
0.70325423 0.22186517 0.18869176
0.69952204 0.19572853 0.65897833
0.68182206 0.70896949 0.18422903
0.70118184 0.70905585 0.69407655
0.18055215 0.30504735 0.30681210
0.21300175 0.31283426 0.82175181
0.18546443 0.80083320 0.30829910
0.19118853 0.80775966 0.80619037
0.68937309 0.30499695 0.33119523
0.69643774 0.29921503 0.80517484
0.70076147 0.78922448 0.32620822
0.69906208 0.81162177 0.81665709
0.00730631 0.98682424 0.00284108
0.00767084 0.00973757 0.50563511
0.98340732 0.47990096 0.99615874
0.00035792 0.49587133 0.50305933
0.49691078 0.97740056 0.00021254
0.50956465 0.99802348 0.50151350
0.50221555 0.50038608 0.00452754
0.51072889 0.50366636 0.49730063
0.99460241 0.25844700 0.24512724
0.99082278 0.23471331 0.75021690
0.00565616 0.75214504 0.24491027
0.00486452 0.75910139 0.74321756
0.49879423 0.23892498 0.23457131
0.50164457 0.26694102 0.74274067
0.50546127 0.74364239 0.24649429
0.50870475 0.74323710 0.75013944
0.24186924 0.00297720 0.25208292
0.25450961 0.99235828 0.75583954
0.24521373 0.49575293 0.25757378
0.25801941 0.49506819 0.74688579
0.74159480 0.99935634 0.23865814
0.74477292 0.99393551 0.74787903
0.73992290 0.50856676 0.24872727
0.76467168 0.50468011 0.74949466
0.24836580 0.25330339 0.98828601
0.23355634 0.25932936 0.50617659
0.24360426 0.74653302 0.99723024
0.25427099 0.75421537 0.49939053
0.74223664 0.25594944 0.99738585
0.76691523 0.24602697 0.49662715
0.75528058 0.75169922 0.99864458
0.73613442 0.73501266 0.51149568
0.00696156 0.00200271 0.26296001
0.98852501 0.00454657 0.74579071
0.99618463 0.49091432 0.24432586
0.01224354 0.50072064 0.74878397
0.47424280 0.98900749 0.25400493
0.50518866 0.01870456 0.75037452
0.50558955 0.49831798 0.25890954
0.50075123 0.51204935 0.73735906
0.25980093 0.00730130 0.00852339
0.25807898 0.98618510 0.51363858
0.24129634 0.50984098 0.99098847
0.25557003 0.51074658 0.49449379
0.74420200 0.01200218 0.99780530
0.75704281 0.97896336 0.51522681
0.74144418 0.49121766 0.99452264
0.75269736 0.50511870 0.49073416
0.00133157 0.23530935 0.00047920
0.99795660 0.25971535 0.49401576
0.99131774 0.76163443 0.00385585
0.98486022 0.74632101 0.48840195
0.50396055 0.25171516 0.99956614
0.50978559 0.24706361 0.49194608
0.48930402 0.74140640 0.01097074
0.50547487 0.74194398 0.49368394
0.24488851 0.24602831 0.25507606
0.24868384 0.24733756 0.75033414
0.25125840 0.74073127 0.25718389
0.25278535 0.74538606 0.75314682
0.75173928 0.26669246 0.25967156
0.75059685 0.24685121 0.73320161
0.75080059 0.74534997 0.24754510
0.75847028 0.75412308 0.76138721
Direct configuration=      2
0.07416938 0.91807037 0.96593659
0.08487201 0.01868569 0.42884692
0.91614658 0.46391083 0.08462023
0.03064352 0.44642759 0.60074263
0.57176979 0.92041874 0.00732917
0.41801938 0.01404712 0.59202311
0.59178105 0.45154304 0.03714400
0.62081546 0.45517516 0.52023076
0.25610839 0.39811244 0.31520779
0.30315067 0.41864994 0.69790942
0.30020315 0.94505523 0.17316024
0.28982130 0.94226335 0.85594485
0.79837777 0.62205671 0.20309053
0.73555067 0.44912196 0.63883034
0.78353350 0.11506182 0.21849532
0.78042625 0.89418775 0.81898128
0.04691435 0.35317664 0.21223750
0.04363770 0.30056312 0.62860503
0.90562838 0.74125448 0.18564675
0.02876183 0.63125518 0.73442827
0.45185294 0.34472334 0.27476886
0.48941229 0.34970854 0.65700629
0.56840505 0.78493536 0.18121474
0.49547995 0.68958135 0.64399557
0.24961094 0.59418326 0.32651100
0.19784212 0.60708688 0.77717087
0.22168460 0.08620125 0.34256455
0.25076251 0.91726259 0.69099101
0.69018358 0.41052666 0.27270261
0.72786082 0.59158713 0.82009832
0.61787412 0.04366357 0.28639539
0.69453882 0.09674464 0.72570692
0.97484771 0.15325265 0.32966728
0.90574814 0.23836612 0.82363832
0.08729048 0.72769076 0.32458454
0.10607699 0.79450925 0.73062276
0.59410993 0.24805637 0.29001670
0.52851601 0.19214313 0.83383081
0.51791312 0.65568200 0.18233023
0.48107342 0.82966032 0.83876042
0.09025999 0.41468995 0.48706525
0.98263146 0.38408606 0.97825852
0.02920558 0.88076804 0.50934401
0.93082364 0.93192373 0.97082555
0.43110599 0.42823612 0.53513809
0.42102705 0.41946790 0.00353074
0.43167880 0.98005890 0.41884808
0.42415368 0.88589026 0.99118311
0.98884430 0.17680770 0.15099748
0.91951284 0.16723072 0.70099529
0.04506927 0.63897589 0.20514164
0.00737316 0.68854916 0.85397886
0.55263430 0.30134703 0.14451058
0.52972593 0.16229566 0.69256746
0.41141017 0.66062323 0.27677792
0.49863557 0.67680986 0.84284851
0.25347637 0.36289220 0.49187907
0.25332497 0.13909258 0.06361859
0.26898407 0.70930207 0.62182667
0.20842964 0.64167981 0.95767024
0.79796258 0.13650772 0.52760884
0.86255977 0.22466570 0.02797320
0.85494436 0.69545155 0.53528436
0.76922306 0.63854150 0.01080870
0.97785738 0.31981947 0.32394662
0.06550398 0.32321466 0.81101718
0.91086030 0.75623825 0.34371275
0.94533866 0.86245226 0.76535286
0.40000394 0.26763500 0.16119597
0.48982211 0.34382214 0.83293563
0.58720441 0.73742968 0.33354302
0.51419655 0.84721158 0.67868281
0.59565050 0.01518901 0.43487852
0.43611933 0.02420533 0.90039157
0.49033822 0.40682059 0.41452367
0.50632770 0.50273945 0.88464026
0.96827604 0.96617724 0.39429267
0.01451646 0.08024105 0.92444293
0.11516178 0.55538099 0.47315308
0.09056671 0.47874000 0.05833679
0.40567052 0.04599781 0.04060243
0.47480364 0.11758739 0.51763916
0.39484175 0.58391994 0.02503261
0.40995512 0.53596094 0.47410580
0.89388927 0.05206883 0.03521576
0.88692730 0.00597184 0.56143170
0.09174547 0.54002006 0.92790388
0.97218194 0.58002050 0.41283832
0.57700011 0.08235993 0.00142817
0.58171165 0.99241043 0.59133418
0.58432834 0.58035044 0.00103549
0.54364826 0.56804841 0.41229461
0.11411219 0.05699723 0.99482465
0.98331208 0.10728565 0.51836529
0.96551422 0.61012436 0.05220875
0.97994288 0.58207888 0.57391761
0.15985815 0.06233018 0.20648270
0.13549798 0.98870088 0.74276816
0.31581615 0.54971096 0.17745157
0.19548381 0.50517170 0.64057185
0.76558404 0.05699700 0.36189777
0.67066290 0.92537658 0.73044992
0.64886412 0.58526621 0.25355000
0.75624670 0.60024464 0.65588194
0.30413251 0.95931048 0.35540197
0.25055280 0.10605292 0.69509300
0.35655855 0.48596524 0.34048415
0.33254422 0.47626284 0.83737273
0.83898956 0.98482880 0.19421950
0.83273811 0.03481469 0.83890851
0.85414583 0.47416272 0.26877974
0.77145033 0.42274208 0.80852016
0.33567411 0.26233924 0.89824536
0.19233968 0.26283761 0.58550861
0.34510381 0.75804337 0.07654523
0.34077957 0.81305559 0.54168741
0.79600428 0.35709661 0.95040239
0.85203408 0.23860518 0.40066728
0.86249203 0.77709147 0.92564299
0.84918099 0.84049949 0.48890799
0.16264715 0.26850165 0.07361701
0.20370999 0.13238089 0.47953018
0.16092287 0.75870030 0.91945652
0.13281734 0.70068444 0.46867818
0.68729456 0.17947317 0.06233156
0.66239116 0.24864479 0.55930135
0.70179150 0.78033031 0.11019532
0.65030808 0.80833178 0.50137816
0.51379748 0.15455246 0.17090852
0.39463998 0.21643633 0.72134438
0.44051567 0.79919297 0.35138441
0.38658084 0.70978614 0.72615625
0.90463193 0.27739530 0.17672765
0.93579922 0.33787495 0.73670382
0.05070720 0.77373043 0.15619968
0.89912136 0.70265252 0.72816409
0.02615429 0.93476751 0.10812885
0.08795484 0.00715460 0.58375770
0.91606355 0.50451234 0.92308574
0.93287849 0.41674955 0.45064155
0.50271349 0.94245416 0.12300240
0.52128123 0.89456637 0.51417708
0.48038708 0.51046345 0.11631967
0.49277424 0.53942379 0.59965622
0.32123462 0.08440832 0.23440717
0.36583742 0.00569026 0.73473746
0.22818938 0.41701665 0.17339918
0.34657740 0.54885532 0.68470798
0.71556103 0.90826278 0.31890380
0.82292563 0.97136702 0.68751362
0.73104900 0.54039903 0.35737769
0.85421862 0.51948801 0.75109048
0.11177515 0.21896310 0.25498206
0.07285338 0.16046814 0.76965188
0.98914151 0.83990217 0.30651913
0.00681873 0.76125965 0.63990629
0.43935316 0.17751180 0.32029037
0.61280875 0.31003935 0.72699025
0.41784762 0.78586857 0.19005059
0.61648930 0.73950674 0.76919395
0.26394142 0.35121815 0.96042107
0.35805401 0.21828198 0.55394556
0.20881050 0.85155833 0.05347862
0.24756370 0.84106052 0.41481155
0.65804257 0.30853801 0.98594068
0.74926955 0.34412549 0.42879114
0.77501116 0.87274655 0.96617562
0.75679178 0.72011424 0.39067412
0.13511090 0.48740003 0.27523564
0.20529077 0.42645911 0.81038071
0.15438208 0.91827248 0.25806152
0.22814849 0.07802528 0.86022099
0.72671053 0.45190654 0.13364516
0.63823200 0.49789937 0.72854936
0.70969112 0.96727878 0.13184836
0.64788680 0.01583317 0.84915905
0.36849296 0.22574898 0.02533635
0.34734653 0.27026498 0.41346958
0.21462765 0.68776772 0.09793146
0.20247004 0.83951638 0.56276723
0.74929773 0.31052059 0.10839390
0.83616949 0.25209711 0.57983543
0.83160203 0.74500205 0.07201316
0.73670761 0.79823318 0.61032720
0.14734357 0.24915780 0.43305399
0.17266863 0.22931961 0.92498771
0.32034396 0.68077005 0.45246467
0.32467228 0.75231562 0.89837800
0.68850574 0.20661852 0.40227954
0.73426976 0.20541461 0.89889100
0.70613173 0.65898878 0.51561877
0.64770163 0.74319603 0.93569173
0.12448029 0.12488749 0.38626727
0.11535161 0.12584500 0.88609506
0.12045159 0.62823581 0.37464282
0.13277575 0.64863728 0.86335470
0.64783792 0.11136492 0.36544652
0.61696656 0.11466022 0.89755234
0.64247892 0.64110687 0.37275642
0.61094460 0.63626592 0.87857549
0.37213309 0.37656248 0.37681472
0.38173249 0.37747387 0.90432571
0.36324582 0.86998843 0.40787353
0.38844076 0.86436787 0.88142455
0.88261697 0.37108824 0.36499370
0.86174089 0.39474715 0.86366072
0.89395393 0.85378701 0.37759326
0.87429578 0.88624588 0.88572274
0.38008203 0.15420184 0.11451387
0.38747185 0.12949862 0.60599130
0.38230296 0.63766380 0.14153615
0.40201335 0.63360748 0.61861833
0.88252285 0.13409534 0.12241282
0.87651937 0.12644301 0.59877087
0.87471136 0.64990569 0.11154908
0.87186778 0.63344473 0.64279965
0.12781725 0.38312282 0.12150825
0.12855860 0.37168279 0.60229681
0.12889948 0.88083512 0.12218504
0.11240074 0.86904230 0.62882596
0.63212979 0.37185271 0.12200013
0.60892926 0.38314834 0.63763729
0.60890552 0.85994415 0.11762447
0.61383551 0.88271672 0.60734177
0.03910876 0.42448486 0.31589147
0.07301546 0.44209321 0.82228862
0.05576867 0.95234623 0.31648584
0.04367104 0.95074205 0.80808250
0.55053970 0.41366324 0.30173789
0.54946885 0.44257894 0.79343217
0.53010405 0.94605065 0.33632786
0.56383782 0.92944627 0.80371291
0.41250647 0.05655553 0.31650374
0.44845356 0.07120124 0.79663889
0.46094876 0.55036977 0.33111172
0.43315849 0.55989010 0.80790576
0.92749471 0.05498614 0.31366777
0.93574751 0.08996442 0.80347223
0.93217170 0.55793769 0.29943176
0.95502823 0.55078035 0.80843960
0.42944716 0.45214211 0.19411197
0.43358180 0.44838945 0.67729762
0.41910904 0.92789958 0.21495955
0.45204457 0.93583611 0.69002224
0.93921583 0.41796014 0.19303762
0.94300842 0.44106370 0.69426109
0.94368620 0.93270102 0.20125463
0.94080637 0.95493009 0.68230143
0.04270427 0.06334231 0.19223203
0.06379858 0.06945623 0.69127276
0.06597234 0.53452285 0.19219323
0.07522404 0.53514398 0.69217077
0.53629109 0.04264925 0.20447506
0.57724875 0.05582209 0.68485581
0.56363737 0.53599758 0.19286997
0.55079955 0.57426088 0.69667812
0.28591908 0.04777547 0.44313300
0.30324224 0.06478790 0.96391578
0.31520355 0.57151397 0.43003053
0.30775569 0.56275670 0.94555179
0.83456886 0.03290041 0.46378148
0.79887844 0.06783108 0.94977482
0.80601216 0.58062516 0.44841283
0.79773879 0.55073706 0.93625303
0.29513753 0.46437429 0.07816443
0.31037174 0.44988101 0.55790417
0.31449371 0.92963800 0.05908732
0.28998641 0.92738574 0.57635932
0.81289420 0.42198758 0.03995429
0.80834537 0.42896500 0.54505326
0.80051479 0.95679368 0.05980629
0.78966402 0.92001345 0.57858990
0.18922445 0.45999690 0.43005418
0.18858657 0.45178116 0.93981170
0.17334385 0.92785186 0.45531250
0.19955319 0.94978389 0.94220909
0.69687502 0.46268147 0.42548207
0.68072930 0.42170243 0.94523772
0.68983051 0.94495810 0.43907344
0.68572820 0.94613165 0.94173051
0.19270371 0.03468159 0.07692777
0.19307371 0.05379388 0.56575668
0.16445760 0.56469981 0.04085459
0.19820795 0.57229161 0.55370317
0.68090349 0.05886367 0.06411485
0.69147253 0.05851629 0.55353871
0.68855932 0.54328146 0.05546131
0.69773400 0.54638068 0.56907663
0.44758210 0.31094234 0.05279499
0.44158993 0.31248361 0.54331637
0.45182732 0.81404316 0.08143410
0.45831196 0.79882964 0.56559366
0.94401842 0.29830656 0.04778094
0.94201026 0.31568276 0.55571983
0.94975927 0.81122492 0.07091575
0.94317370 0.80354043 0.54790871
0.04790233 0.32392581 0.42957565
0.06929281 0.30021159 0.94785007
0.06098458 0.78953653 0.43132808
0.05330015 0.80520837 0.93853654
0.57936106 0.30583796 0.43621542
0.56418072 0.29225721 0.92367134
0.55306552 0.80723690 0.43419308
0.54776762 0.80552818 0.95077807
0.45016239 0.19872166 0.43559626
0.43971936 0.18902116 0.94061876
0.44212135 0.67851366 0.44483748
0.42198393 0.69602655 0.96876231
0.95889165 0.19699783 0.43295000
0.94766912 0.18081020 0.94038393
0.93007120 0.68411568 0.42672133
0.93471415 0.68849512 0.95049402
0.07488781 0.17821286 0.05466231
0.06979292 0.20757480 0.54411171
0.06331273 0.68131084 0.05751315
0.03520358 0.67303224 0.54383812
0.56658293 0.18927171 0.05107397
0.55562614 0.19630048 0.55402379
0.56393105 0.67091725 0.05911126
0.57312625 0.69086959 0.54871456
0.30005185 0.31242331 0.18693338
0.30667064 0.29151865 0.67763466
0.28756825 0.79860469 0.16545899
0.31307658 0.79836951 0.67934159
0.79831997 0.33148978 0.20032109
0.80971511 0.32109775 0.68894822
0.80002313 0.80584931 0.17553661
0.82988598 0.81871320 0.71281536
0.30214843 0.18721389 0.30296063
0.31068725 0.18285813 0.79463064
0.32107054 0.71756217 0.31672589
0.30704413 0.68470431 0.80030675
0.82372640 0.19472181 0.29436304
0.79950091 0.18389947 0.78556514
0.81432327 0.68591564 0.29151629
0.80634602 0.69248590 0.82439960
0.19278787 0.19456597 0.17194442
0.17314841 0.19756511 0.70149569
0.19839655 0.65891652 0.20580125
0.17904867 0.70255634 0.70242818
0.69346650 0.19916386 0.19562738
0.68425668 0.21033823 0.67778295
0.68522387 0.68760681 0.18741387
0.70489512 0.70863387 0.69222071
0.18209774 0.30616487 0.30943391
0.21115580 0.30152845 0.82224164
0.18321569 0.79681373 0.30418681
0.20485543 0.83101545 0.80618849
0.69259190 0.29917116 0.32054239
0.69659243 0.31024585 0.81183477
0.70566220 0.79333685 0.31655055
0.69502457 0.81611742 0.80369564
0.00380608 0.00653800 0.00944673
0.99680220 0.99697219 0.50618020
0.00072704 0.51071981 0.99393923
0.00972639 0.50177867 0.49889908
0.48929144 0.99951638 0.00332018
0.49708412 0.99950836 0.51022766
0.49083216 0.50192800 0.00586737
0.51112105 0.49313943 0.49095120
0.99503048 0.24476880 0.23884772
0.99932132 0.25737467 0.74241429
0.99666238 0.73862320 0.25328394
0.00524759 0.73803001 0.74960473
0.49000013 0.24816197 0.24417483
0.50789221 0.26436157 0.74469515
0.49878444 0.74493421 0.26095040
0.50272687 0.75649777 0.75443867
0.24100685 0.00335210 0.26683302
0.25119674 0.01400058 0.76888697
0.26124560 0.49241423 0.26502441
0.26054456 0.50598133 0.73682499
0.73224516 0.00618779 0.24714743
0.74304625 0.98823730 0.77580416
0.74308671 0.50951678 0.24274711
0.74523057 0.50784387 0.73512993
0.26780508 0.23610350 0.99198045
0.26124345 0.24389197 0.48751742
0.24902507 0.75503642 0.00146534
0.24589592 0.74547617 0.50936986
0.76238635 0.25773919 0.99351239
0.76283981 0.24447833 0.48572465
0.75309205 0.76205360 0.99118324
0.76247033 0.76165489 0.49637943
0.99367993 0.00441259 0.25177722
0.99373428 0.01627219 0.74936932
0.99160593 0.48979121 0.25300958
0.01471377 0.48763201 0.75941650
0.47479490 0.99485867 0.26662027
0.51466743 0.99886133 0.74557617
0.50149887 0.48971413 0.25562549
0.48932629 0.50726502 0.74486900
0.25397552 0.99443487 0.01105505
0.23487913 0.98774568 0.50651630
0.24083374 0.50999534 0.00140338
0.25733315 0.51271470 0.49316514
0.73945187 0.00480234 0.99845147
0.74837726 0.99067170 0.51017872
0.74405766 0.48265652 0.99397264
0.75801296 0.50236151 0.49186221
0.00992175 0.23529093 0.99814777
0.00359768 0.26101268 0.49386588
0.00341533 0.74667606 0.00568731
0.99054957 0.73886215 0.48203457
0.50323953 0.24711434 0.99420808
0.51069141 0.25670442 0.49258453
0.49657933 0.74490438 0.01521220
0.50424645 0.73851984 0.49689863
0.24707174 0.25124763 0.24143980
0.24857876 0.24485593 0.74694158
0.24897166 0.74340631 0.24100205
0.25113089 0.75930668 0.74714617
0.75299418 0.25550070 0.25465081
0.74783169 0.26154170 0.74329254
0.75075157 0.74427706 0.24367841
0.76248173 0.75360976 0.76021623
Direct configuration=      3
0.07035590 0.92986454 0.94663285
0.07401335 0.01869068 0.40720580
0.90502199 0.47419765 0.06164722
0.05246457 0.42518258 0.60156497
0.58469187 0.90715139 0.01532622
0.39943622 0.99858289 0.57358423
0.59976695 0.46273458 0.01673100
0.59629032 0.43631153 0.51845772
0.25019152 0.39706045 0.30939270
0.31925532 0.43183557 0.66579434
0.28244861 0.91902149 0.17791124
0.27284269 0.91734820 0.84584984
0.78190632 0.60894455 0.19463081
0.73784838 0.42208839 0.65407127
0.78650154 0.10170160 0.19097392
0.76674570 0.89543243 0.83354945
0.09327077 0.33449506 0.21914327
0.03231657 0.25948583 0.64377035
0.90093486 0.74046690 0.18535852
0.03733733 0.64897438 0.73369025
0.42766509 0.33543634 0.27514332
0.48427554 0.31996977 0.66387130
0.58628659 0.81106876 0.23293178
0.49483955 0.68653872 0.66466509
0.22850550 0.61263232 0.30635445
0.21490142 0.60016016 0.78194042
0.22006097 0.08776920 0.33452744
0.24895669 0.90162080 0.69344451
0.67565424 0.44028228 0.31693078
0.72909614 0.58072862 0.82598949
0.63156706 0.03064335 0.27394296
0.72442161 0.10201558 0.72708470
0.98413919 0.14128254 0.29987463
0.92933219 0.25290477 0.85161726
0.08602389 0.74568202 0.32373523
0.11326773 0.81080578 0.74002479
0.56612552 0.26523237 0.30594278
0.52123834 0.19503712 0.84369716
0.50597328 0.66355273 0.16478434
0.48732362 0.82286063 0.83763615
0.09612893 0.41449167 0.48359465
0.02840622 0.39764339 0.96787464
0.04962975 0.88891050 0.50679161
0.90568540 0.89751484 0.99375809
0.42841997 0.43499039 0.54745876
0.42133291 0.43888758 0.01535431
0.45020404 0.95954495 0.41184363
0.41486043 0.90308366 0.01582574
0.98259546 0.17217452 0.15467578
0.90300296 0.18295912 0.70287742
0.01904723 0.62514533 0.23258039
0.02825948 0.74300395 0.86078355
0.57106199 0.28377915 0.13458101
0.54089131 0.16551957 0.67744637
0.41401022 0.64360137 0.25460850
0.48653443 0.66438145 0.84054530
0.28610354 0.36274442 0.46955404
0.24956139 0.14074703 0.06179027
0.25744489 0.69216023 0.59318797
0.23404600 0.63468004 0.93377657
0.78858257 0.14393938 0.50292952
0.85459311 0.20176885 0.01655469
0.85770839 0.68937251 0.51163894
0.77667309 0.63170928 0.02104588
0.97785324 0.30677803 0.33223940
0.07285455 0.32563951 0.80995328
0.93232269 0.75400830 0.35625353
0.94273472 0.85011594 0.78443932
0.39784041 0.24417385 0.16132490
0.46107365 0.32876677 0.83657234