Li192 P32 S160 Cl32
1.0
20.312311 0.000000 0.000000
0.000000 20.312311 0.000000
0.000000 0.000000 20.312311
Li Cl S P
192 32 160 32
Direct configuration=      1
0.09754580 0.91578831 0.00544365
0.09262268 0.01854158 0.42815956
0.91318717 0.47749536 0.07763554
0.03702222 0.45232472 0.60868522
0.59251984 0.91501838 0.99803100
0.41088588 0.00887311 0.58394237
0.59453931 0.43918775 0.01015365
0.60578473 0.46319643 0.53611593
0.26196940 0.41781578 0.33131163
0.33074475 0.40481805 0.74539612
0.31385612 0.93395784 0.19073269
0.26937737 0.91325323 0.84208174
0.83143119 0.58902479 0.22906976
0.75327062 0.41095322 0.65573301
0.83582593 0.08592850 0.22924746
0.76398740 0.90792608 0.83147148
0.00774495 0.33313996 0.16300344
0.01927760 0.27575624 0.64149200
0.89040549 0.74345878 0.20171124
0.07563711 0.65494958 0.74855143
0.45690911 0.35484722 0.27445280
0.53077264 0.33167869 0.67747259
0.58281437 0.78154664 0.16547771
0.50439908 0.67072968 0.65757974
0.24195739 0.59523361 0.33295539
0.22119857 0.60651751 0.79464341
0.23524280 0.09082922 0.33721895
0.23541221 0.91202425 0.67005604
0.67837458 0.41495835 0.27943553
0.73592828 0.57766439 0.82839676
0.65887153 0.08302524 0.24882783
0.75377428 0.08440590 0.67511258
0.00148119 0.16837296 0.33417672
0.93131527 0.22799812 0.85052012
0.09395324 0.73102684 0.32097485
0.09169008 0.83266011 0.74907218
0.59938336 0.22231748 0.27874054
0.50222643 0.16262331 0.84220860
0.48868844 0.66668398 0.16657056
0.48579256 0.82869170 0.83485465
0.08379976 0.40663559 0.48784029
0.98173427 0.38261306 0.96842383
0.99130056 0.88469652 0.47069328
0.95003872 0.89336481 0.96813510
0.42414713 0.41965465 0.55084289
0.41294392 0.41376245 0.00240192
0.41556993 0.98896889 0.41501342
0.41827296 0.91139995 0.99756482
0.99775101 0.16249106 0.16174431
0.91449437 0.16113928 0.71958583
0.00197180 0.65884408 0.18585616
0.01929141 0.72114194 0.86473131
0.54342626 0.29504641 0.13872986
0.51030265 0.16458636 0.66089147
0.43321304 0.68660958 0.31003492
0.51485388 0.66607603 0.83281304
0.22893375 0.36383995 0.51883670
0.23432873 0.13999520 0.00285765
0.24166991 0.74470491 0.61444887
0.21329002 0.63817109 0.97775049
0.78024656 0.13579166 0.52360617
0.86235960 0.21967217 0.03351829
0.83914699 0.66292464 0.51573861
0.72627924 0.63786154 0.98044885
0.97890076 0.33443199 0.32982495
0.06443470 0.31455588 0.80860695
0.91862888 0.74897313 0.34348072
0.93488894 0.84421633 0.77127670
0.40016750 0.24599347 0.16959677
0.47947618 0.32520278 0.83168071
0.59632721 0.73915314 0.32326822
0.50505393 0.83869894 0.66393709
0.57913377 0.02314714 0.41616626
0.47702186 0.97624379 0.88693821
0.52189011 0.41506540 0.41571684
0.48643716 0.48329905 0.88235480
0.92019140 0.99593433 0.41045226
0.00706649 0.02383018 0.88733818
0.10493865 0.54274046 0.45751871
0.08365663 0.47914980 0.07864033
0.41342077 0.07473831 0.01736109
0.47505999 0.11757362 0.51740564
0.40995304 0.58988461 0.00300244
0.40396674 0.49294013 0.41681837
0.90122071 0.05188338 0.01796981
0.90553131 0.99298780 0.57269057
0.08227685 0.51754276 0.91660979
0.94736656 0.55464617 0.42013139
0.57989485 0.08766080 0.98613022
0.58505491 0.00277621 0.57616115
0.57106702 0.59476818 0.98545910
0.51329917 0.59761279 0.44859317
0.08203982 0.08203630 0.99697769
0.98076937 0.11112810 0.52767792
0.98578140 0.60634947 0.03416959
0.98833049 0.58391810 0.58274445
0.18305260 0.06831239 0.18761469
0.13190370 0.99975585 0.77360423
0.25688405 0.58533689 0.16234835
0.21448904 0.49354569 0.64308427
0.74863536 0.08011616 0.34968370
0.64500673 0.95515879 0.70291149
0.66278634 0.59834129 0.24837343
0.75557142 0.58784828 0.66096260
0.27414676 0.94806705 0.35863640
0.22939031 0.07993280 0.67358796
0.35928063 0.51341051 0.25944972
0.29281544 0.47652118 0.86415849
0.83411023 0.92564644 0.25246986
0.81655310 0.05562145 0.81811377
0.84324460 0.44402331 0.27837386
0.76517718 0.41570389 0.82015549
0.29543528 0.28335679 0.89035040
0.17244663 0.25435842 0.58892966
0.33241307 0.72754535 0.08364445
0.33985501 0.83763048 0.50286172
0.77947805 0.33398462 0.93451379
0.83880682 0.25013049 0.40925408
0.83736921 0.74964247 0.90811112
0.83987258 0.82754033 0.48243313
0.16931206 0.25459607 0.09095183
0.22122618 0.13665176 0.48431556
0.16404805 0.75548589 0.91819735
0.16708654 0.67502643 0.48075192
0.73421681 0.16249199 0.08482035
0.67247631 0.26413153 0.58239538
0.71377005 0.78886797 0.09696700
0.66788078 0.83219060 0.50139077
0.49776239 0.15296088 0.16105144
0.38961805 0.21909620 0.72322305
0.48125141 0.84062659 0.33578083
0.38805900 0.72498284 0.72440473
0.88540517 0.23508991 0.21822587
0.91600604 0.33988239 0.75918509
0.02169437 0.81797545 0.16012451
0.90562341 0.69294552 0.72498381
0.02295784 0.96971373 0.11238925
0.07896845 0.97767561 0.58737445
0.91398534 0.49867077 0.90453109
0.91876115 0.41740920 0.48632830
0.52486464 0.96992144 0.11219809
0.51822320 0.89170186 0.51352787
0.47765620 0.52200867 0.11031255
0.46390847 0.54747775 0.59412916
0.34184955 0.08133714 0.23095662
0.35843850 0.00314790 0.74728819
0.23856252 0.41740087 0.16747741
0.35294922 0.55472425 0.71560512
0.68107163 0.93398182 0.31372583
0.80881292 0.92864301 0.68266139
0.72723956 0.54121536 0.36249237
0.86674139 0.52159708 0.71732559
0.11023191 0.26249516 0.25686468
0.07189356 0.15714922 0.76316252
0.99107480 0.86209616 0.30095701
0.03014196 0.77353848 0.63553576
0.44621607 0.18604836 0.32200639
0.61786484 0.22269199 0.78066047
0.42961482 0.81677913 0.18806472
0.61521559 0.76030918 0.74349378
0.21160205 0.36173592 0.01629169
0.35770507 0.22848671 0.55076433
0.26057068 0.85727911 0.02282777
0.27527709 0.77784253 0.38729378
0.63944706 0.28148187 0.00939032
0.76996336 0.36066395 0.46860154
0.78072554 0.86471476 0.97564797
0.74063087 0.71889950 0.38786224
0.13144171 0.51342741 0.26361999
0.17318134 0.42885678 0.78812012
0.16275560 0.92118639 0.24311029
0.24014935 0.08392936 0.84121419
0.72350788 0.48433509 0.13766263
0.63922111 0.47213555 0.71338216
0.71561753 0.96888598 0.14097822
0.65528406 0.02124785 0.83202839
0.34919306 0.22748280 0.03163650
0.32274165 0.27362487 0.40592749
0.16803114 0.75862070 0.09197925
0.16179099 0.82945931 0.50951829
0.74472855 0.32872649 0.09109239
0.84434121 0.25090561 0.58157788
0.85592431 0.72116425 0.04983501
0.76435808 0.76358588 0.61221002
0.16262197 0.24434161 0.41856192
0.15765990 0.23111392 0.91121015
0.33571406 0.66667350 0.50866243
0.33817938 0.75377511 0.92278040
0.66459413 0.22918716 0.42823474
0.73568050 0.18081820 0.90762550
0.67103987 0.65974036 0.49845964
0.66130072 0.75077653 0.92141976
0.13849254 0.12872926 0.39164777
0.12421133 0.11376785 0.87377886
0.13461850 0.62544829 0.37508560
0.12606723 0.63950869 0.87725787
0.63610465 0.12159933 0.36234585
0.62009225 0.12942391 0.87411808
0.64873614 0.63804709 0.37069028
0.63192578 0.63826427 0.88941822
0.37591757 0.38521972 0.36887575
0.37192523 0.38101098 0.86460609
0.36818658 0.87708659 0.38928141
0.38635344 0.88194747 0.88358930
0.87166146 0.36576953 0.38304396
0.87614068 0.37740334 0.87241179
0.89975765 0.87252198 0.38180142
0.86618139 0.86379215 0.88402372
0.38337737 0.13727106 0.12308917
0.39936395 0.13089272 0.61931676
0.38541606 0.62166552 0.11762744
0.38881869 0.63735134 0.63361146
0.87541473 0.14206831 0.12968015
0.87052804 0.12495707 0.61240193
0.89094694 0.64235231 0.13287628
0.87402323 0.61932224 0.63218077
0.13464409 0.37027887 0.11443021
0.12781338 0.37219257 0.59577359
0.11545940 0.87779705 0.12105059
0.12452820 0.86632994 0.62976626
0.63062193 0.36555988 0.09827684
0.63647727 0.37973509 0.62839404
0.62728199 0.88065454 0.11050053
0.60586200 0.88500177 0.61072191
0.04870109 0.43376713 0.29946001
0.05867224 0.44010021 0.82093774
0.06670934 0.95551621 0.31904018
0.03678140 0.93464632 0.80783459
0.55854291 0.43298528 0.30329852
0.54487015 0.43121948 0.78618621
0.55007720 0.94432918 0.32218454
0.56054491 0.93757129 0.79991529
0.43355508 0.05950102 0.31137728
0.44729647 0.05784652 0.80263454
0.45139032 0.55997618 0.32196464
0.44397590 0.56174078 0.80252594
0.93958312 0.06323322 0.30683595
0.93784156 0.06342554 0.79641185
0.92386101 0.54342707 0.29730649
0.94932100 0.56113265 0.80165898
0.43769683 0.45169557 0.19796377
0.42146157 0.45866757 0.67702409
0.44032348 0.94111706 0.19557509
0.44166004 0.94490205 0.68561198
0.92944461 0.42615171 0.18572861
0.95096040 0.43541169 0.69365731
0.95054155 0.93366782 0.20560884
0.93488604 0.93712391 0.68113400
0.05634981 0.05750458 0.18782300
0.05884036 0.04892579 0.68986087
0.04696865 0.54590974 0.18192844
0.06943503 0.54492343 0.68876440
0.55568015 0.05278740 0.19553220
0.56960537 0.05543111 0.68841538
0.55762269 0.56246798 0.19393392
0.55461196 0.55438695 0.67785252
0.30212007 0.04862742 0.44472189
0.30563857 0.06428305 0.94738645
0.31005311 0.56568201 0.43651125
0.30436426 0.56286759 0.94713592
0.81137211 0.04664198 0.44783403
0.80230206 0.07570233 0.93989181
0.81257987 0.56591937 0.44475060
0.80199555 0.55274370 0.93427180
0.30189871 0.43567582 0.05685177
0.30017134 0.45171881 0.55985654
0.32012245 0.95195134 0.06479265
0.30637262 0.93804367 0.56842172
0.80120954 0.43636039 0.05414360
0.81366660 0.44000684 0.55286628
0.80937514 0.95612874 0.05106420
0.80368238 0.92308680 0.55597894
0.19281084 0.44847599 0.43391230
0.18947702 0.44877062 0.93658153
0.18758660 0.93274703 0.44862956
0.20473735 0.93250733 0.94764346
0.69399320 0.45142734 0.43959510
0.69515143 0.42507327 0.92694565
0.67922563 0.94273236 0.44610972
0.69538058 0.94674225 0.93137393
0.18512406 0.05075256 0.06043524
0.18499173 0.05042462 0.56234993
0.18623609 0.55479581 0.06238470
0.18729132 0.56782323 0.54721005
0.68085146 0.05641621 0.05382449
0.69883009 0.05316987 0.56575465
0.67727100 0.54183323 0.04165527
0.69337452 0.55617933 0.56198085
0.43694898 0.30643550 0.06175206
0.45517925 0.30808793 0.57729068
0.43176174 0.80444860 0.05608232
0.44736125 0.80294623 0.55749207
0.95000639 0.30215655 0.05619696
0.94694288 0.31537476 0.55145464
0.93912107 0.81495776 0.06582375
0.94726636 0.80312072 0.54971992
0.05685851 0.30718462 0.42585182
0.05792573 0.29494625 0.93574297
0.06342448 0.79288655 0.43349846
0.05272289 0.81058453 0.94627280
0.57119616 0.31371853 0.45138315
0.54517641 0.30986045 0.93664766
0.55824987 0.80351376 0.43524922
0.55378628 0.81158171 0.94109115
0.43724267 0.21037946 0.45003909
0.43148359 0.18829882 0.94626688
0.43403740 0.69254257 0.43591867
0.44629248 0.68962372 0.93832545
0.94340823 0.18928036 0.44159120
0.94494989 0.17227228 0.95561380
0.93798277 0.68074797 0.44061576
0.94173381 0.69102939 0.95752589
0.06965284 0.18589519 0.06132692
0.06090808 0.19947445 0.55464017
0.05897395 0.69944534 0.07207287
0.05962355 0.68358352 0.55551132
0.55846561 0.19674510 0.05476899
0.56680629 0.18974603 0.55212522
0.55756796 0.69716776 0.06250013
0.55548763 0.67620542 0.54313046
0.30881253 0.31404791 0.19631359
0.29934772 0.29894503 0.68717288
0.30661847 0.80835751 0.17600678
0.30108801 0.80845227 0.69657851
0.79656316 0.31426799 0.20152251
0.81907358 0.30881609 0.69115034
0.79892635 0.82422104 0.18488806
0.82757715 0.80352819 0.70686607
0.31537552 0.18624574 0.30602001
0.30138277 0.18792627 0.80679083
0.31000708 0.69666238 0.30453994
0.30672897 0.69638361 0.81608111
0.80917678 0.18661648 0.30341054
0.82206346 0.18289197 0.80077870
0.81296230 0.69829823 0.29153455
0.81351668 0.67966827 0.81185169
0.19035229 0.19624687 0.19837357
0.17578702 0.18946291 0.69580684
0.19406065 0.68928707 0.18837403
0.18670311 0.69135662 0.70676319
0.68296963 0.19176864 0.19420793
0.69832168 0.19534825 0.69077627
0.68383384 0.70866474 0.18823123
0.70215936 0.69831353 0.69110996
0.20310953 0.30689352 0.31924432
0.19089353 0.30654547 0.81483921
0.19550381 0.81213820 0.29992855
0.19089727 0.81798021 0.81813513
0.68485795 0.29612617 0.32075717
0.70977058 0.29937513 0.81730624
0.69821225 0.81101247 0.31900623
0.69978699 0.80515905 0.81418424
0.00485882 0.99263210 0.99875474
0.99840610 0.99809130 0.50051431
0.99471785 0.49604286 0.99636560
0.00692419 0.49603586 0.50274737
0.50259386 0.99606433 0.99907606
0.49540204 0.00505057 0.50033890
0.49293394 0.50278229 0.99628670
0.49379999 0.49260708 0.49550776
0.99768317 0.24791652 0.24600783
0.99230626 0.24620731 0.75202449
0.99514040 0.75440053 0.25455610
0.00640865 0.75049960 0.75095329
0.49486964 0.24717503 0.23584170
0.50362631 0.24130876 0.75246030
0.50364742 0.75472486 0.24976689
0.50192188 0.75006874 0.74601875
0.25040796 0.00473599 0.25639450
0.24517438 0.99747510 0.75687598
0.24636179 0.50523433 0.25049530
0.25657584 0.49915113 0.75456268
0.74889835 0.00696570 0.25220979
0.74422702 0.99391589 0.75310643
0.74317015 0.50926919 0.24983151
0.75208367 0.49877459 0.73893337
0.24155724 0.25165864 0.99325621
0.25039565 0.24987659 0.49888781
0.24688371 0.74644065 0.00133773
0.25365315 0.75372323 0.50088315
0.75167034 0.24687618 0.00613500
0.75862479 0.24772619 0.49963024
0.75663094 0.75102646 0.99468391
0.75309461 0.74663032 0.50013992
0.00421176 0.00409036 0.25625818
0.98952969 0.99607194 0.74134673
0.98770707 0.48793514 0.24162009
0.00755368 0.49564835 0.75219561
0.49521653 0.99979821 0.25786079
0.50492138 0.00040657 0.74209274
0.50382309 0.50295849 0.25540758
0.49186248 0.50168485 0.73649415
0.25353082 0.99978665 0.00552515
0.24598867 0.99104965 0.50707279
0.24697033 0.50058872 0.00263488
0.24926673 0.50916634 0.49387319
0.74708585 0.01004373 0.99303517
0.74775149 0.99019412 0.50349756
0.74487016 0.48833031 0.98720115
0.75543448 0.50408698 0.50090303
0.00646738 0.23793380 0.00174170
0.00235944 0.25404044 0.49255511
0.99959753 0.75458770 0.01231047
0.00188896 0.73866214 0.49361327
0.49280141 0.24971987 0.99765234
0.50835692 0.25888784 0.50609252
0.49811250 0.75096507 0.00095384
0.49911439 0.74404115 0.49339551
0.25639844 0.25082893 0.25317026
0.24132923 0.24559911 0.74931944
0.25236182 0.75137770 0.24122420
0.24489679 0.75415767 0.76078128
0.74311777 0.24748782 0.25404837
0.76256956 0.24771061 0.74870846
0.74728845 0.76213358 0.24578985
0.76073646 0.74653406 0.75834429
Direct configuration=      2
0.08770874 0.91695011 0.00268679
0.09153701 0.02133117 0.42814485
0.91407778 0.48288668 0.07630539
0.03034940 0.44816625 0.60610082
0.59095087 0.91254869 0.00066517
0.41380526 0.00791962 0.58249959
0.60034688 0.45248242 0.01779364
0.60489841 0.46644091 0.52183569
0.27381547 0.38601178 0.29952059
0.30924922 0.41235705 0.69568761
0.31105886 0.93227765 0.18888788
0.26948724 0.91614947 0.84926097
0.83025889 0.58147436 0.22462451
0.75398257 0.41200379 0.65851901
0.77918355 0.11282170 0.20001553
0.76499084 0.90594002 0.83905244
0.03064941 0.35420950 0.19426255
0.02198462 0.27659521 0.64111983
0.89293303 0.73239225 0.20082440
0.06302410 0.64613709 0.75718712
0.45903914 0.35029125 0.27194391
0.50475188 0.34186377 0.66547003
0.58251404 0.78413484 0.17588973
0.50684206 0.67022957 0.66120682
0.22886377 0.60655949 0.29575214
0.21954731 0.60579258 0.79090615
0.23484946 0.08666440 0.34130790
0.24071721 0.91146342 0.67966363
0.67124713 0.41622462 0.28381591
0.73985297 0.58022450 0.83010787
0.63458741 0.02519980 0.28291459
0.69796471 0.07197165 0.68925333
0.96409428 0.17571061 0.32263490
0.92963118 0.22084186 0.84539809
0.09544591 0.73695318 0.32119346
0.10968742 0.80194660 0.73502877
0.60376686 0.21150319 0.27305044
0.51911175 0.16880843 0.83356921
0.50128485 0.66459306 0.16033607
0.48547157 0.82834036 0.83747855
0.08684639 0.41355548 0.48787367
0.98423921 0.38609255 0.96971910
0.00687839 0.88799603 0.48793228
0.92368234 0.91332968 0.98789329
0.41042305 0.42579867 0.51941770
0.41981547 0.41396725 0.99844980
0.46344204 0.97525654 0.40368459
0.41467841 0.90390865 0.99890714
0.99493948 0.16098338 0.16034620
0.91196152 0.16464066 0.71420748
0.00769919 0.63980531 0.24068902
0.01161757 0.73595885 0.86297835
0.54807903 0.29226059 0.13660015
0.50971060 0.16922492 0.65926758
0.41765807 0.66527634 0.27172692
0.49962755 0.66275375 0.83898490
0.22956254 0.36608822 0.51426906
0.25134142 0.14072172 0.03535204
0.25527173 0.71639914 0.60692304
0.22260727 0.63917487 0.95783886
0.78007998 0.13733389 0.52614655
0.85489374 0.20889242 0.02473605
0.83667780 0.66498370 0.51899559
0.77136793 0.63622626 0.02782170
0.97664962 0.33086178 0.33199616
0.06555469 0.31562393 0.80916553
0.91205103 0.75316626 0.34222963
0.94848492 0.85382553 0.76832776
0.40154798 0.24873330 0.16606914
0.47833174 0.32547337 0.83737317
0.59419535 0.73678048 0.32401194
0.51177667 0.83404133 0.67082893
0.60918466 0.03505478 0.45164600
0.47492658 0.98021024 0.89050846
0.49589586 0.42347976 0.40807480
0.49558875 0.48983937 0.88959890
0.92001540 0.99082388 0.41633063
0.00065045 0.02996200 0.89175595
0.10936368 0.55513786 0.46674004
0.08795834 0.48230182 0.07342326
0.39838468 0.04625961 0.03510731
0.47908396 0.11736249 0.51677103
0.41120278 0.58966244 0.00507510
0.41209934 0.59089984 0.50862157
0.90402491 0.06477397 0.02439919
0.90727797 0.00431600 0.57666502
0.08657877 0.52199575 0.91933457
0.94905102 0.55980907 0.41990824
0.57360429 0.08141938 0.98826109
0.58822215 0.99379106 0.59293832
0.57845548 0.59900453 0.98548565
0.52391616 0.58927031 0.41666955
0.08355755 0.08679728 0.99630049
0.97976961 0.11714532 0.52562361
0.98062802 0.61156042 0.03470338
0.98585395 0.58407282 0.58427782
0.18577496 0.06532520 0.18756935
0.13124438 0.98961620 0.77080833
0.33250483 0.52445630 0.17128832
0.18709533 0.49819972 0.65244892
0.74972590 0.08775606 0.34446296
0.65596756 0.90494885 0.73250237
0.66255327 0.59210467 0.24728776
0.75465220 0.58674867 0.66344034
0.32474061 0.97699037 0.34721709
0.22613088 0.08005253 0.67955559
0.34210533 0.49670058 0.33960910
0.33049333 0.48280978 0.84590231
0.86263671 0.99231169 0.24694115
0.81099359 0.05724723 0.81802109
0.83327197 0.42424473 0.27256248
0.76834497 0.41396963 0.82559993
0.30184408 0.27188047 0.88764430
0.18157779 0.25798445 0.59364955
0.33721926 0.72991357 0.08185127
0.34774827 0.83433911 0.50828599
0.81163106 0.34897033 0.96754421
0.83477587 0.25143393 0.40826069
0.83835507 0.75047863 0.91367486
0.83699446 0.83053082 0.48289109
0.16332671 0.26721830 0.08168260
0.22085862 0.13813078 0.48399992
0.16538083 0.75962470 0.92016627
0.14766657 0.71201289 0.47097232
0.68613073 0.16995387 0.03922316
0.67236516 0.26848301 0.58188311
0.70419436 0.78298583 0.09657200
0.66707754 0.83012942 0.49534461
0.49693517 0.15177658 0.15396434
0.38786683 0.22103908 0.71856415
0.45670030 0.79193191 0.35618063
0.38965478 0.72632489 0.72880158
0.89765028 0.25699614 0.17693853
0.91482082 0.33965000 0.75969383
0.03673721 0.79887786 0.15375098
0.89847533 0.70078109 0.72347551
0.03691101 0.97797599 0.11596138
0.08159712 0.98773503 0.59176843
0.91768945 0.50331591 0.90488184
0.91963570 0.42114709 0.48604256
0.52714962 0.96619834 0.11550973
0.52197104 0.88872023 0.52206965
0.48117559 0.51964475 0.11191605
0.48565636 0.53135290 0.60684993
0.33738796 0.08475571 0.22849245
0.36060209 0.00757092 0.74876283
0.23672991 0.41404831 0.16270000
0.35530521 0.54863160 0.70709250
0.75730432 0.91552063 0.33110693
0.80941754 0.93629793 0.68420355
0.73189283 0.53870667 0.36188985
0.86941923 0.52436007 0.72150338
0.10672456 0.22418880 0.25499448
0.06880954 0.15734378 0.76819454
0.98722681 0.86368317 0.29729469
0.01726074 0.76843058 0.63305339
0.44641986 0.18109669 0.31844112
0.61433425 0.27618225 0.73595562
0.42879209 0.81713424 0.19571691
0.61221287 0.72112452 0.77668481
0.25775882 0.36094451 0.99786956
0.35521403 0.22525117 0.54733847
0.22823799 0.85252723 0.04940647
0.25312384 0.83466256 0.40435410
0.66172589 0.32645750 0.98901546
0.77143641 0.36152095 0.46821113
0.77614902 0.86318695 0.97929440
0.74039898 0.71890986 0.38621835
0.13846348 0.48852215 0.25233549
0.18771374 0.43155287 0.81224903
0.16549754 0.92280423 0.24878140
0.23665865 0.08433319 0.84728678
0.71818539 0.46805881 0.13875969
0.64111424 0.46928992 0.72526007
0.71917358 0.96120483 0.14617330
0.65380801 0.01772816 0.84035427
0.36168143 0.22659099 0.02227823
0.32928885 0.26645408 0.40751879
0.18019824 0.69982805 0.08411730
0.19725929 0.85479629 0.54472969
0.73030674 0.29590267 0.10890953
0.84691515 0.25312284 0.57633377
0.84636111 0.74852693 0.07055103
0.74887758 0.76748302 0.61241312
0.15947452 0.24402995 0.41856155
0.15932015 0.22783741 0.91759447
0.30010792 0.68290320 0.43476328
0.33657283 0.76130665 0.92123593
0.65973430 0.23433548 0.42909900
0.72661488 0.20284888 0.89193377
0.67147380 0.65726457 0.49907245
0.65955511 0.74247976 0.92859239
0.14079281 0.12781633 0.39248549
0.12212510 0.11703768 0.87690847
0.13737275 0.63600263 0.37803742
0.13230895 0.63492185 0.87367057
0.63653465 0.11967828 0.36615955
0.62204191 0.12344022 0.88535157
0.64283025 0.63372463 0.37263084
0.61586109 0.64252523 0.87454015
0.37637901 0.37872607 0.36827914
0.37523473 0.37761386 0.88937290
0.37351830 0.87772864 0.39510035
0.38360624 0.87745539 0.88526710
0.86920052 0.36770813 0.38182199
0.87919700 0.38530731 0.87463942
0.88294946 0.87417652 0.37518762
0.86290717 0.86573754 0.89156965
0.37824557 0.13804203 0.11802061
0.40175606 0.13224108 0.61612787
0.39397100 0.62037473 0.12368338
0.39978943 0.62430952 0.62874768
0.87760041 0.14282703 0.12511491
0.88088200 0.13056014 0.60287035
0.86856187 0.63867903 0.11751440
0.87322501 0.61994717 0.63433697
0.12975456 0.37807631 0.12560526
0.12784975 0.37661552 0.59769843
0.11966017 0.88498399 0.11976287
0.12901774 0.87676541 0.63876224
0.63571176 0.37184689 0.10136627
0.63128868 0.37266849 0.64236547
0.62581990 0.87846019 0.11448178
0.61278953 0.87904570 0.61804427
0.04425733 0.43103388 0.29852914
0.06542784 0.44197969 0.82085131
0.06913445 0.95341503 0.32282694
0.03043366 0.93974751 0.81316839
0.55120649 0.43080876 0.30262896
0.54784869 0.43182999 0.80157282
0.54562986 0.94418469 0.31929276
0.55948172 0.93976555 0.80482379
0.42477485 0.05404003 0.31212630
0.45055540 0.06221638 0.80443161
0.44787296 0.55823316 0.32023660
0.43446491 0.55381824 0.80837010
0.93966025 0.05726232 0.31339285
0.93301311 0.06999953 0.79669504
0.93419930 0.55851892 0.29333039
0.95803540 0.56470072 0.80157364
0.43258206 0.45054782 0.19508799
0.43437039 0.44911003 0.68092260
0.43565092 0.94052935 0.19122758
0.44602979 0.94765536 0.68711545
0.92815466 0.43339683 0.18562625
0.95166937 0.43637470 0.69740584
0.95910419 0.93872368 0.20331048
0.93352786 0.94377889 0.68256797
0.06204642 0.06683602 0.19991408
0.05900017 0.05289034 0.69570471
0.05393213 0.54526622 0.18239328
0.07120927 0.54447786 0.68523330
0.55104954 0.05361161 0.19911892
0.56988021 0.06228966 0.69085709
0.55774237 0.55776266 0.19391683
0.55870857 0.55642099 0.69768111
0.30433059 0.05122003 0.44890954
0.30279804 0.06349360 0.95357579
0.31643600 0.56190007 0.44181438
0.30958252 0.55948866 0.94028516
0.81369278 0.05024690 0.44538403
0.80092091 0.07607633 0.94424592
0.81144425 0.56735666 0.44744847
0.80520199 0.55709238 0.93620932
0.30640449 0.44894494 0.06267784
0.30142264 0.44923148 0.56393548
0.31508646 0.94733555 0.06578132
0.30445217 0.93670182 0.57041816
0.80464324 0.43713081 0.05332170
0.81351368 0.43942464 0.55338410
0.81052953 0.95379321 0.05395341
0.80857033 0.92916977 0.55699729
0.19260113 0.45659208 0.43984472
0.19218363 0.44170291 0.94237159
0.18587370 0.93441407 0.45407985
0.19877088 0.93181435 0.95047602
0.69531552 0.45080074 0.43887917
0.69586500 0.43160926 0.92921149
0.69182037 0.93763767 0.43796262
0.69495335 0.94498560 0.93613095
0.18190554 0.04974590 0.06429247
0.18781356 0.05424610 0.56533949
0.18445896 0.56359578 0.04910134
0.19551467 0.57573134 0.55571803
0.68096035 0.05176641 0.05995926
0.69305230 0.05266199 0.55426419
0.68429620 0.54664599 0.04695336
0.69161761 0.55318358 0.56359794
0.44534488 0.30704680 0.05986064
0.44220129 0.31539398 0.56255019
0.43699233 0.80445667 0.06343053
0.45069744 0.79990794 0.56449279
0.93902339 0.30126496 0.04963834
0.94883567 0.32073569 0.55221785
0.94509377 0.81946963 0.06579877
0.94251707 0.80564631 0.54761703
0.05717898 0.31420109 0.42516045
0.05712844 0.29589867 0.93722817
0.05716249 0.79424431 0.43148966
0.05730031 0.81230228 0.94407848
0.56026536 0.32202828 0.44188881
0.55499728 0.31462144 0.93632914
0.55739014 0.80377807 0.43904168
0.55337695 0.81118622 0.94152526
0.43644491 0.20571461 0.44462431
0.44206290 0.19555175 0.93722032
0.44335402 0.68951552 0.43848012
0.44069566 0.69226394 0.94443372
0.94150265 0.19713273 0.44091926
0.94569443 0.16969422 0.95126283
0.93053174 0.68300936 0.43905381
0.94397915 0.69532594 0.95353311
0.06529659 0.19056751 0.06224612
0.06258635 0.20418474 0.55085185
0.05549639 0.70115806 0.07306823
0.05341462 0.68446156 0.55242608
0.56229867 0.19456171 0.05429316
0.56364071 0.20067650 0.54872364
0.56369413 0.69812921 0.05972821
0.56339153 0.67966395 0.55238867
0.30890385 0.31509980 0.20108924
0.29257083 0.29328811 0.68001403
0.30408970 0.80486217 0.17936673
0.30328473 0.80150885 0.68959522
0.79984018 0.32353710 0.20408264
0.81916633 0.30853644 0.68695053
0.79972433 0.81179587 0.17789156
0.82049277 0.80536741 0.70328101
0.31206698 0.18398814 0.30399589
0.30240950 0.18351432 0.80043285
0.31186574 0.70217676 0.31262207
0.30734866 0.69357684 0.81409984
0.81080935 0.18917364 0.30107090
0.81648799 0.18442392 0.79754499
0.81152536 0.68986294 0.28937229
0.81142268 0.68490904 0.81339314
0.19841553 0.19126345 0.18217666
0.16986445 0.18849302 0.69807722
0.19200736 0.68406986 0.20422143
0.18192630 0.69515702 0.70678362
0.69312015 0.20014673 0.18693879
0.69510886 0.19823099 0.68417183
0.67909218 0.70064010 0.18751123
0.69793608 0.69532527 0.69408057
0.18976661 0.29646394 0.30844423
0.19391051 0.30310922 0.81810791
0.19222412 0.81555863 0.30290835
0.19679154 0.81880595 0.81626018
0.68327818 0.29725847 0.31907290
0.70654860 0.30370205 0.80960791
0.69847465 0.80679555 0.31101521
0.69416018 0.80628875 0.81323304
0.00252029 0.99970583 0.00431502
0.00047374 0.00200033 0.50395212
0.99614816 0.50020878 0.99651155
0.00747273 0.50054061 0.50232324
0.49836265 0.99009542 0.00384193
0.50725930 0.00376752 0.50750592
0.49821541 0.50797736 0.99992989
0.49501814 0.50343749 0.49559236
0.99544206 0.25098868 0.24128237
0.99148269 0.24824961 0.75149254
0.99403593 0.75338741 0.25624766
0.00417717 0.75051317 0.74779266
0.49695492 0.24266877 0.23249394
0.49940801 0.25125184 0.74509512
0.49956064 0.74506069 0.25088218
0.50125226 0.74622220 0.75240925
0.25319851 0.00457413 0.25740785
0.24671780 0.99827748 0.76233108
0.25460065 0.49341929 0.25411415
0.25790265 0.49951512 0.75120430
0.74914318 0.00806894 0.25348494
0.73812206 0.98787738 0.75883764
0.74257470 0.50352321 0.25018981
0.75499083 0.49842993 0.74303279
0.24936399 0.24809692 0.99449132
0.25005077 0.25169530 0.49553209
0.24896497 0.74492553 0.00154988
0.25136827 0.76334026 0.49964986
0.75091048 0.25434255 0.99898201
0.75635618 0.24935817 0.49844978
0.75564486 0.74964177 0.99797078
0.75113981 0.74712991 0.49932455
0.00929776 0.00544994 0.26071642
0.98720135 0.00151496 0.74547850
0.98958301 0.49192218 0.24018123
0.01264155 0.49536657 0.75270085
0.48906196 0.99719995 0.25659886
0.50766900 0.00386733 0.74460219
0.49809418 0.50123935 0.25321337
0.49396513 0.49751375 0.74779109
0.24849300 0.99781686 0.00783480
0.24648772 0.99361469 0.50863991
0.24794162 0.50457332 0.99889228
0.25057261 0.51210625 0.50135416
0.74772169 0.00916143 0.99663985
0.75219329 0.99052105 0.49957949
0.74882870 0.49278027 0.98937037
0.75513941 0.50374366 0.50207143
0.00174784 0.23892839 0.99991065
0.00336704 0.26009452 0.49129630
0.00179110 0.75763649 0.00909814
0.99566580 0.74021160 0.49086780
0.50215892 0.25218782 0.99394924
0.50215041 0.26432505 0.49821245
0.49898258 0.75160753 0.00325662
0.50457255 0.74167375 0.50085332
0.25294067 0.24559871 0.24827572
0.23850077 0.24280293 0.74884153
0.25028960 0.75238374 0.24844286
0.24745750 0.75289126 0.75831069
0.74738765 0.25326121 0.25476090
0.75965983 0.24925580 0.74337403
0.74739809 0.75312683 0.24057052
0.75668109 0.74831518 0.75742745
Direct configuration=      3
0.06811768 0.93473077 0.94185683
0.08969488 0.01816508 0.42395938
0.90901258 0.48554770 0.07914470
0.01705729 0.42716868 0.59963614
0.58405442 0.90987161 0.00139249
0.41627600 0.00753180 0.58313701
0.59917188 0.45543563 0.01979477
0.59118580 0.41998208 0.51156182
0.26702072 0.38885040 0.29836122
0.30438281 0.41247040 0.68958666
0.30969302 0.93339813 0.18089219
0.26053714 0.90966712 0.84697910
0.79934981 0.60104658 0.21166032
0.74595050 0.41530738 0.65775435
0.77214604 0.11501592 0.19878925
0.75437502 0.89900495 0.83594073
0.08557051 0.33162066 0.22700476
0.02988566 0.27777173 0.64427813
0.90134737 0.73244264 0.19865401
0.07972535 0.65985944 0.75414810
0.43023871 0.35156252 0.26495748
0.50389047 0.33923103 0.66267604
0.58077589 0.84348134 0.23459089
0.49652610 0.67000926 0.66125405
0.22909064 0.60982051 0.27367192
0.21929908 0.60575982 0.78239842
0.23437498 0.08508340 0.33793366
0.23372051 0.91092604 0.68365611
0.67208890 0.42231324 0.29477637
0.74558457 0.57880015 0.83476232
0.63689136 0.02979203 0.28261231
0.75052076 0.09953630 0.72092909
0.94232071 0.18088918 0.31858665
0.92398880 0.24492778 0.85002560
0.09582476 0.73694945 0.32831732
0.08635128 0.83984854 0.74533950
0.56922105 0.29561123 0.30822798
0.51277946 0.17047931 0.83584167
0.54264922 0.68151560 0.17204885
0.48300243 0.83239199 0.83480667
0.09709865 0.41173531 0.49545619
0.00517987 0.38570412 0.99749467
0.01732614 0.88461697 0.49845773
0.91439702 0.90833881 0.98377236
0.42911621 0.43889305 0.55489581
0.41610049 0.41493374 0.00160540
0.46626023 0.96949803 0.40152350
0.40981055 0.91016529 0.98772118
0.98193158 0.16689948 0.16505979
0.92052940 0.15989811 0.71992173
0.01564311 0.63191607 0.26999460
0.01123015 0.73051519 0.86330349
0.54828356 0.29298563 0.13895876
0.51285039 0.16573872 0.65776962
0.41655976 0.66534533 0.24936882
0.49771929 0.66102657 0.83566325
0.25939851 0.36543708 0.48880431
0.24009232 0.13621032 0.01582219
0.27691476 0.70721742 0.60606957
0.22690624 0.64000738 0.94555525
0.78425127 0.13452836 0.52634750
0.85060242 0.19603989 0.03286337
0.84114365 0.66450736 0.51931961
0.77226296 0.63414001 0.02706138
0.97963999 0.33046571 0.33831202
0.06322920 0.32135719 0.80955476
0.91462831 0.75474648 0.34456396
0.93067644 0.84452292 0.76859551
0.39760633 0.24826239 0.16641369
0.48346764 0.32898339 0.83121530