Li192 P32 S160 Cl32
1.0
20.312311 0.000190 -0.000113
0.000190 20.312339 -0.000033
-0.000113 -0.000033 20.312424
Li Cl S P
192 32 160 32
Direct configuration=      1
0.14946654 0.22145332 0.43320557
0.00696906 0.14188520 0.85753245
0.08944016 0.73096888 0.33275453
0.16632751 0.52208806 0.81864835
0.63649853 0.16956602 0.50038188
0.49279731 0.11377041 0.89979481
0.66272340 0.72039748 0.41833800
0.73805737 0.63213059 0.87328251
0.14236589 0.00655180 0.35829305
0.24974040 0.15615506 0.91956726
0.99658201 0.61600249 0.37972435
0.23850076 0.65437477 0.88778268
0.58684608 0.16062304 0.26724484
0.66129911 0.07405618 0.77366398
0.60314439 0.58515459 0.47266768
0.63682083 0.52518679 0.88076419
0.01764678 0.14042363 0.33216111
0.11462477 0.06823345 0.98415184
0.09937144 0.50098782 0.40305138
0.08358000 0.74077726 0.84884711
0.58824614 0.01692114 0.40999028
0.71240673 0.14276991 0.88689916
0.62660774 0.49934254 0.36882245
0.65055932 0.75856142 0.90616497
0.20996774 0.08859111 0.25940842
0.14465538 0.25306487 0.90771704
0.14542092 0.60058511 0.26569461
0.01007249 0.61631323 0.85061211
0.61710457 0.25148754 0.38557711
0.61800072 0.09644047 0.99663317
0.73681762 0.59148918 0.34475697
0.53060196 0.67740335 0.86312614
0.22194404 0.10454088 0.41474995
0.13621513 0.03399260 0.83871574
0.14570211 0.61003073 0.48870025
0.09526240 0.63219481 0.75420453
0.48187787 0.12397630 0.38366111
0.59368182 0.99013808 0.88274043
0.61712698 0.65167503 0.26886780
0.64397208 0.61941973 0.75999204
0.08188978 0.10465672 0.47185110
0.10327357 0.15461865 0.76668876
0.22615995 0.69191366 0.40672057
0.10260463 0.59300865 0.98365035
0.72213244 0.09885391 0.35846456
0.60972441 0.22131161 0.82838562
0.51674942 0.62054373 0.36984774
0.59934320 0.62754931 0.97271290
0.01984746 0.39555838 0.12375913
0.17124044 0.35910012 0.52330336
0.10802852 0.75369909 0.13035632
0.23682331 0.90093851 0.65999730
0.64448234 0.26658561 0.10278091
0.59247164 0.48364588 0.60548850
0.51342974 0.85077702 0.14351702
0.66549321 0.00301344 0.64476991
0.16638225 0.41356676 0.24375570
0.03735951 0.43847510 0.57553591
0.12828941 0.98963865 0.14418143
0.11923034 0.87794536 0.73455324
0.69924279 0.39115474 0.21459551
0.52466842 0.35962650 0.72711153
0.73707219 0.88731308 0.15350433
0.62920547 0.82526257 0.71908599
0.12454882 0.28466259 0.21947937
0.16473561 0.49776013 0.65231573
0.11265366 0.90435581 0.01927395
0.10555671 0.77127603 0.62725430
0.53670047 0.35491611 0.16872818
0.67540990 0.41431224 0.72078691
0.65052853 0.75903408 0.10304262
0.63533991 0.78286089 0.56375183
0.24191430 0.37393376 0.10554438
0.15290602 0.27116892 0.63230124
0.13167860 0.88854937 0.25127377
0.02341210 0.91604013 0.55896866
0.58674910 0.39798265 0.00395095
0.61873474 0.25901849 0.63348313
0.62957058 0.88230439 0.02882742
0.75762481 0.86451768 0.61004093
0.14170318 0.28224066 0.06193748
0.03628274 0.34629425 0.69537115
0.99239540 0.90157950 0.10216596
0.14135766 0.00237460 0.63748610
0.72802901 0.36663064 0.05221039
0.52525144 0.38426219 0.54595470
0.60988848 0.84441725 0.25671586
0.60044249 0.91437837 0.49898748
0.13269687 0.43671333 0.02841522
0.23581995 0.38517083 0.71161768
0.23149184 0.87626445 0.11343717
0.16373014 0.85667458 0.51210266
0.63035344 0.49081510 0.10052209
0.69413563 0.36664865 0.55844596
0.62977582 0.97602768 0.15094666
0.52596175 0.87929617 0.63072939
0.28133273 0.17202079 0.09371256
0.36905826 0.22937491 0.63263876
0.28526600 0.54980694 0.14602545
0.39076864 0.66150069 0.51361857
0.85003407 0.01895030 0.15564453
0.80097002 0.06411192 0.65688403
0.80252201 0.63236438 0.05567324
0.99493805 0.63568230 0.64803957
0.38704958 0.00608194 0.12143020
0.48030101 0.06131151 0.59951860
0.43356185 0.53462085 0.09387134
0.37650417 0.68246457 0.72530089
0.95186042 0.21557249 0.14955990
0.78555653 0.20016720 0.60658129
0.91816238 0.49589416 0.11927381
0.76523438 0.65658273 0.58857177
0.40204587 0.24500098 0.15121950
0.34113969 0.12604052 0.54019255
0.38364008 0.68909862 0.02841837
0.49766480 0.68678645 0.66275391
0.98627303 0.09797950 0.08085335
0.89394957 0.14506310 0.73546808
0.95167382 0.61622993 0.02606827
0.86273234 0.58739680 0.73824352
0.40483398 0.09873830 0.02232097
0.29248572 0.11549084 0.71692566
0.26138829 0.70358668 0.08767469
0.45195810 0.53959967 0.59749529
0.76703860 0.12337587 0.13212709
0.89530156 0.12618351 0.49975370
0.78310256 0.58149737 0.20153492
0.91146613 0.58188920 0.52291232
0.48935496 0.13589557 0.14028529
0.46919190 0.15221588 0.72403224
0.49794982 0.66108516 0.13981273
0.32015072 0.54540553 0.65467823
0.85245911 0.15937846 0.02257506
0.91975375 0.01959875 0.59864726
0.88710963 0.73166029 0.13002721
0.88719806 0.73002044 0.65006617
0.39812036 0.13819648 0.24407425
0.36653884 0.00284879 0.63932423
0.36783260 0.68484768 0.21154930
0.27872488 0.69975235 0.59698269
0.89232142 0.15757584 0.23371764
0.00671582 0.14664970 0.63889244
0.95753609 0.63636827 0.22783673
0.79568130 0.52166434 0.64046480
0.46635619 0.29820690 0.36217239
0.28581416 0.34617306 0.89468199
0.47416821 0.81866939 0.36421977
0.37342677 0.85152570 0.97555638
0.75210909 0.34299530 0.41704763
0.84677316 0.46580787 0.83776070
0.87509320 0.76874998 0.34610888
0.98563266 0.89653485 0.89571054
0.33715215 0.37904087 0.26842306
0.46835892 0.49153047 0.89490569
0.28970869 0.94010177 0.34312335
0.35690510 0.87011910 0.76196568
0.90931586 0.47697012 0.40849252
0.90296437 0.30276131 0.74206186
0.79679983 0.87833453 0.28766256
0.91785219 0.85324147 0.75173984
0.35293216 0.34769071 0.49191277
0.32446198 0.48260167 0.84715661
0.32869433 0.77359033 0.38076517
0.29463104 0.96814319 0.87000263
0.84206768 0.43195495 0.27141472
0.00004429 0.40832034 0.91174585
0.96843982 0.89439680 0.41759226
0.88285733 0.76689164 0.86228461
0.46347858 0.45402903 0.36310271
0.46009364 0.29599744 0.85799731
0.39467865 0.83467372 0.25321570
0.27018374 0.82063156 0.87403558
0.86552824 0.28320256 0.30455997
0.89006090 0.39587172 0.99432790
0.85852107 0.99351795 0.37146138
0.76381800 0.90661323 0.82710313
0.28485752 0.46457740 0.37509078
0.42406607 0.39109654 0.98110993
0.37648535 0.85925109 0.49540512
0.42588371 0.97727751 0.89675529
0.87105216 0.35480641 0.48587774
0.84141001 0.25860922 0.90766799
0.96634859 0.86120489 0.25940349
0.81968921 0.85250336 0.97758040
0.30655501 0.27313176 0.40089250
0.38618199 0.37880906 0.76428885
0.43675271 0.96568918 0.39233370
0.48200335 0.83363165 0.84569875
0.98568072 0.34863940 0.36709006
0.76904935 0.36606770 0.88031989
0.77651189 0.87296252 0.46127764
0.88252508 0.01016421 0.89667896
0.02958251 0.99582561 0.01273603
0.98697206 0.01545324 0.49805911
0.01561211 0.50386397 0.00876848
0.00098722 0.50450287 0.48953477
0.50467720 0.02005252 0.97936436
0.50153883 0.97987307 0.49429379
0.51830920 0.49678488 0.00559015
0.51424605 0.49537176 0.51087695
0.97226889 0.23544460 0.26689439
0.99919134 0.21039695 0.75456148
0.98188982 0.74732809 0.26862186
0.99679281 0.70450646 0.75724509
0.48148198 0.23251904 0.24737394
0.51357183 0.24559225 0.76929498
0.49502484 0.77396187 0.26166715
0.49477386 0.74839544 0.76015518
0.21941487 0.96556940 0.24614819
0.22007916 0.99411888 0.71777477
0.25978830 0.48490391 0.25295634
0.24457394 0.50973664 0.74245735
0.75591499 0.96643807 0.23170911
0.74464318 0.99777795 0.73270980
0.74229817 0.49395890 0.24608236
0.74368321 0.50909442 0.76500480
0.26257655 0.25538566 0.99708044
0.25819565 0.25348029 0.49810738
0.28807532 0.74882511 0.98446080
0.24987007 0.74930136 0.49584154
0.75787226 0.27297653 0.97793509
0.71420012 0.25581973 0.51832956
0.72770968 0.75613125 0.98568957
0.73865447 0.75071494 0.51339553
0.41477182 0.19446001 0.44486126
0.43657666 0.20804908 0.94387709
0.45505523 0.69563851 0.42970847
0.44091844 0.73125221 0.94064862
0.95243146 0.20249794 0.43237854
0.94312131 0.19671639 0.95501481
0.92438361 0.70077637 0.45722271
0.94097252 0.69326640 0.93420307
0.20172793 0.06905376 0.06493936
0.19747137 0.05843269 0.53756039
0.19690922 0.54931638 0.05648156
0.21324657 0.57008550 0.58114022
0.68674588 0.06002008 0.06241069
0.70640894 0.07646437 0.57191159
0.68954653 0.56916023 0.05151116
0.69887928 0.54199775 0.57115698
0.31550484 0.04003840 0.42535376
0.32583214 0.06268670 0.95038475
0.30107489 0.57758058 0.44679505
0.31216856 0.56644105 0.93603676
0.80394538 0.07641202 0.43945666
0.80768181 0.08828846 0.94819438
0.81055600 0.54245540 0.43822045
0.80305088 0.55841305 0.93616132
0.04778978 0.20261729 0.06652840
0.07660460 0.19727935 0.55052811
0.04775222 0.69105991 0.05371902
0.06121748 0.69467712 0.55303345
0.55400584 0.18763324 0.06023049
0.52951235 0.17996645 0.56248525
0.55832832 0.70397072 0.05375857
0.55907916 0.68169924 0.54731067
0.13240829 0.11612747 0.35291436
0.13328238 0.13438194 0.88502010
0.11374700 0.62044719 0.37523464
0.12799297 0.62153227 0.87401865
0.60798424 0.13711239 0.38893953
0.60437790 0.11114918 0.86666630
0.63349615 0.62525274 0.37661899
0.63023711 0.63758926 0.86689001
0.42927231 0.45093631 0.18489805
0.44948824 0.44972300 0.69854203
0.44548092 0.93291133 0.19760477
0.43339469 0.94046702 0.68924790
0.94025906 0.41384134 0.20566071
0.93879898 0.41639445 0.68444771
0.92670258 0.93336610 0.18761837
0.95922144 0.94104059 0.68885883
0.20411009 0.30902884 0.30872542
0.21901857 0.32027440 0.81505894
0.19404507 0.80293826 0.32372659
0.17478972 0.80065233 0.80283680
0.68243731 0.31051740 0.30682973
0.68439285 0.30672575 0.78522679
0.70216317 0.79169784 0.30684269
0.70629663 0.81209100 0.80716647
0.31440050 0.29194716 0.18899604
0.31458071 0.30313339 0.69828408
0.29437918 0.79967626 0.18639742
0.29479618 0.79932925 0.67708937
0.80052740 0.31343996 0.20504638
0.80661403 0.29438919 0.67043510
0.80789764 0.79836963 0.18495499
0.82092232 0.81504346 0.69589235
0.05730507 0.43469730 0.32148869
0.06127917 0.42942433 0.80337757
0.04582700 0.93533767 0.30316407
0.05545641 0.95053637 0.81574165
0.55985882 0.43947229 0.28909988
0.56404048 0.44510270 0.82089730
0.55872807 0.94609424 0.31888939
0.55342624 0.93200312 0.80056057
0.12861799 0.36680502 0.13844620
0.13559988 0.37891946 0.63200159
0.12077959 0.87239445 0.12585451
0.12480939 0.88811884 0.61943100
0.63448414 0.37887571 0.11416364
0.60163846 0.37109435 0.62929245
0.62809137 0.85376754 0.13656927
0.63966829 0.88752577 0.61827924
0.18137935 0.19503312 0.18913890
0.19824534 0.19099131 0.70963453
0.17105612 0.68999308 0.19637211
0.17649749 0.69539551 0.67812696
0.67447767 0.19553499 0.18908734
0.70016107 0.17344559 0.68155216
0.70055321 0.67710567 0.17501960
0.70025017 0.70955901 0.68486099
0.42926668 0.04219638 0.30837733
0.43128707 0.05918307 0.80691886
0.44514045 0.56351815 0.30351930
0.44237503 0.58059415 0.81112083
0.92199957 0.05909097 0.29951335
0.93514750 0.06054040 0.81042270
0.93838987 0.54203165 0.31024337
0.93830429 0.53123402 0.80629347
0.04378262 0.05482578 0.19144333
0.07022723 0.06410800 0.71073173
0.05398923 0.53147239 0.18978492
0.04649633 0.54206858 0.68248925
0.55659293 0.06160631 0.20037715
0.54776983 0.05863941 0.69605176
0.55083678 0.56606818 0.18202960
0.56169488 0.56025168 0.69427779
0.30523408 0.17857860 0.31013756
0.33289104 0.18998787 0.80947445
0.29807150 0.67514355 0.30148819
0.29883769 0.69683305 0.79742570
0.78904237 0.18280119 0.30331130
0.80145327 0.19765858 0.80844315
0.80512377 0.67191650 0.29869790
0.81003845 0.68512828 0.79645188
0.37801524 0.11844549 0.13544775
0.37229974 0.11375938 0.64500691
0.37389477 0.63102219 0.12352899
0.38467438 0.63520061 0.62722570
0.88453941 0.12193315 0.12563344
0.89394764 0.12480489 0.62161884
0.88395374 0.61549572 0.13606851
0.87392316 0.61580516 0.62293290
0.20675755 0.45623470 0.45557951
0.20002538 0.44835941 0.93181326
0.19604221 0.92366754 0.42121335
0.19489090 0.96549762 0.93597911
0.68534842 0.43412499 0.45052858
0.68541366 0.43564865 0.93935269
0.69239635 0.96698847 0.44393378
0.70373287 0.94057091 0.93564749
0.46013446 0.31200446 0.06958558
0.43352130 0.30785279 0.56727370
0.42923780 0.81422989 0.07945736
0.45752553 0.80720271 0.55955966
0.94287292 0.32793570 0.06692233
0.95137650 0.30348907 0.56114029
0.92084197 0.80645963 0.04143916
0.94774126 0.81574178 0.57767137
0.07303172 0.32357947 0.45128913
0.06703340 0.32308139 0.96090208
0.05271558 0.81708892 0.44008750
0.05793474 0.81204209 0.94292104
0.53976622 0.31094461 0.45568324
0.55969594 0.30231173 0.93552540
0.57200950 0.81495075 0.44476385
0.55100275 0.84020327 0.95668924
0.32024035 0.44191841 0.05079007
0.33472734 0.46048908 0.57469802
0.30784442 0.94281081 0.05848004
0.30243244 0.93136285 0.55211091
0.80788126 0.45456817 0.05963981
0.81575797 0.42730183 0.55660439
0.81409739 0.96409733 0.05970726
0.82780398 0.95422271 0.54012779
0.36410400 0.36867193 0.37678676
0.39980832 0.39450733 0.86869247
0.37188357 0.86444357 0.37538024
0.36752060 0.87939364 0.86833329
0.86578131 0.36936666 0.38191565
0.87514838 0.36524256 0.87025965
0.86863961 0.88114162 0.36692169
0.86819027 0.88463241 0.87612977
0.25544609 0.01269148 0.00461310
0.25162154 0.99020697 0.48271629
0.25962150 0.49966133 0.99076535
0.26642523 0.51164287 0.51499464
0.74844967 0.00926866 0.99951975
0.75921433 0.01528346 0.50422592
0.74502142 0.50511226 0.99323509
0.75598536 0.48821188 0.50005103
0.25535475 0.24078246 0.25177312
0.26399392 0.24932555 0.76721822
0.24331300 0.73990995 0.25026149
0.23785588 0.74848966 0.74006908
0.73764684 0.24669409 0.24786045
0.74367177 0.25062998 0.73644521
0.75056205 0.73249573 0.23606056
0.75785785 0.75542999 0.74545251
0.98561982 0.99175345 0.24558208
0.99460816 0.00283065 0.75587653
0.00137967 0.48308378 0.25485798
0.99496011 0.47529066 0.74328061
0.49983727 0.99255432 0.25536273
0.49147893 0.00058643 0.75269475
0.49383164 0.50454413 0.24053746
0.50123465 0.51319718 0.75801619
0.99901945 0.26545410 0.00621436
0.00936783 0.25493501 0.49914377
0.99408712 0.75091841 0.99574096
0.99440685 0.75335814 0.50356495
0.50127742 0.25600852 0.00411566
0.48256599 0.24568093 0.50629352
0.49400477 0.77439958 0.01176139
0.50893248 0.75379167 0.49835992
Direct configuration=      2
0.13027997 0.20618341 0.44488027
0.01312202 0.13387790 0.86938766
0.08291570 0.73606314 0.32291281
0.11710061 0.51239667 0.86137046
0.65775981 0.14985417 0.50232366
0.51459748 0.12872589 0.87691161
0.66203087 0.70797863 0.41665552
0.74391643 0.65598948 0.90198043
0.12721467 0.00214456 0.37252532
0.22394255 0.15249192 0.93079812
0.00659000 0.58800668 0.39731806
0.21732022 0.65725035 0.89212666
0.60633136 0.13321436 0.26400962
0.64289807 0.09670790 0.75721940
0.60755552 0.59259047 0.47345067
0.66789825 0.53213341 0.85874359
0.02424150 0.14394356 0.34452561
0.10568187 0.06885197 0.97514221
0.09666331 0.50196682 0.42914613
0.09366952 0.75904481 0.84601286
0.59043069 0.02436712 0.39941580
0.72914093 0.13444471 0.90358576
0.65263318 0.47886993 0.34461657
0.63378365 0.76892271 0.90023868
0.15989806 0.10234536 0.28146895
0.13372225 0.24437630 0.90905070
0.14524414 0.60201933 0.27604255
0.99182229 0.64151660 0.83269805
0.64814434 0.24998691 0.41608501
0.62765554 0.09730240 0.97748899
0.76732434 0.61770367 0.36448153
0.51719463 0.64016306 0.84096591
0.23781977 0.14321437 0.40934338
0.14943053 0.05983292 0.80187601
0.14156860 0.62550466 0.49238296
0.09229527 0.64100016 0.75126985
0.49615781 0.16323203 0.37367300
0.59730033 0.01122828 0.88373014
0.63028138 0.61921312 0.25835183
0.64286337 0.62358134 0.75606937
0.09253021 0.06468313 0.50192344
0.10131572 0.17645147 0.76876148
0.22923794 0.66574420 0.39065618
0.10898922 0.63068252 0.98261467
0.72368454 0.12944491 0.36166306
0.61046659 0.22919872 0.82740543
0.51346540 0.65426287 0.35733158
0.59585040 0.61118411 0.98079485
0.03355539 0.38157134 0.13004007
0.14100033 0.37184602 0.51255169
0.12149823 0.77377935 0.13227753
0.23072213 0.88323878 0.62760206
0.62500988 0.26644787 0.11332781
0.60961719 0.49213746 0.60037496
0.51863338 0.84548209 0.11966946
0.64642150 0.95328151 0.68567107
0.14769727 0.43616938 0.22414693
0.02328346 0.40826108 0.59712955
0.13137479 0.99786444 0.13153792
0.12659133 0.88773649 0.72542741
0.73227888 0.38574711 0.18024997
0.55212984 0.37704064 0.73008043
0.75025136 0.88630738 0.14040660
0.59196420 0.81156811 0.73177441
0.10444085 0.27890491 0.21783052
0.16101717 0.48246999 0.65244569
0.11243858 0.90355907 0.00505611
0.09883138 0.76752574 0.64805340
0.56094290 0.37866408 0.19139947
0.72566983 0.40822990 0.71072729
0.67543801 0.76697636 0.10906644
0.66023543 0.77193278 0.56860832
0.25320565 0.34830832 0.09438332
0.16284920 0.25859970 0.61502406
0.13344370 0.88200607 0.24595986
0.00571878 0.86099575 0.62888520
0.53765073 0.38780723 0.02324091
0.58475777 0.27207016 0.64600378
0.62049343 0.88932383 0.01993130
0.73907091 0.86559725 0.61602469
0.13778036 0.29195113 0.06025556
0.04319437 0.32546528 0.70353228
0.00388386 0.90630860 0.09144225
0.13377830 0.99691613 0.62249091
0.69995734 0.37086897 0.01365158
0.55299274 0.38342538 0.54237030
0.59561397 0.85815308 0.23408747
0.60552472 0.89924916 0.51247228
0.12943431 0.46108254 0.04847124
0.22233664 0.38581108 0.73655788
0.23828592 0.88222265 0.13124558
0.16329891 0.81146624 0.49806837
0.63270784 0.49777438 0.08597617
0.71536558 0.33157791 0.56707783
0.64775622 0.97300167 0.17778350
0.51318433 0.88154251 0.62179419
0.26926445 0.16274563 0.08293674
0.34511504 0.23675786 0.61877996
0.33289165 0.51297055 0.16082700
0.36626186 0.67155694 0.51823953
0.84367985 0.00858366 0.16944483
0.79660729 0.03059804 0.64976013
0.80739072 0.60335395 0.04163039
0.96879934 0.62859961 0.65484919
0.36379487 0.00986739 0.14289522
0.47660459 0.08030720 0.56930644
0.44485096 0.53098106 0.07628435
0.39493593 0.66845449 0.73708510
0.93615920 0.22394191 0.15580716
0.79064331 0.17133625 0.58987333
0.93208625 0.51139009 0.13092953
0.76340774 0.65656230 0.57560054
0.39874895 0.24805133 0.14517331
0.31559569 0.13080557 0.53063019
0.36533212 0.63391048 0.00091184
0.48678341 0.67475360 0.61737124
0.97534834 0.07803640 0.12373459
0.88827679 0.13864299 0.73569243
0.96642191 0.60283331 0.01804613
0.84295158 0.60080163 0.74438756
0.40959935 0.09375389 0.00698508
0.34702986 0.11911073 0.74358808
0.29102664 0.69054456 0.11696040
0.42172198 0.52832157 0.57037903
0.74125257 0.13468001 0.12576890
0.93370751 0.11051297 0.51454481
0.78180775 0.59140018 0.20030234
0.89024066 0.57947824 0.51458742
0.49173054 0.13628389 0.14928641
0.46602766 0.15084744 0.72120243
0.48229479 0.66535575 0.13422169
0.30952744 0.54478338 0.66303658
0.86087396 0.19888265 0.02807435
0.91580766 0.01043107 0.59254833
0.88105495 0.72921855 0.10778754
0.87635626 0.72399839 0.62294332
0.38242335 0.13946878 0.24287408
0.32780654 0.01982183 0.63792999
0.39227575 0.69243084 0.22157325
0.28556431 0.69238627 0.62462392
0.89060926 0.14088458 0.25145771
0.98787691 0.16181145 0.64793333
0.92674146 0.66127176 0.22741834
0.80382387 0.52506306 0.62333576
0.44070262 0.28855850 0.35994000
0.27208247 0.34584505 0.88770083
0.48067113 0.85869986 0.34754121
0.34336457 0.83965465 0.99250535
0.77693279 0.34282023 0.39837078
0.83526423 0.48112733 0.85280525
0.89688140 0.75534769 0.35634493
0.97020386 0.88451931 0.88332879
0.33745057 0.40166250 0.26078878
0.47473125 0.47104328 0.88744272
0.26613337 0.92539154 0.36060810
0.37825529 0.85658950 0.76701937
0.92625641 0.46393507 0.42199553
0.89025921 0.32902200 0.73554733
0.79088816 0.86947088 0.28038455
0.89419520 0.85309615 0.74365827
0.38488414 0.36879964 0.48313794
0.33188685 0.49614028 0.82562190
0.33688962 0.78747099 0.42656831
0.27423371 0.96272940 0.83699240
0.86313268 0.45304824 0.30084646
0.00455507 0.36641602 0.88544570
0.96789536 0.90293512 0.43288505
0.84597767 0.76988073 0.89328766
0.48287511 0.45810292 0.39408952
0.44039341 0.28403948 0.86452559
0.36275873 0.85562005 0.26043870
0.29137147 0.79860676 0.88666597
0.87382320 0.29662133 0.28406994
0.90402980 0.39003784 0.97848053
0.85285299 0.97176341 0.37270356
0.76482523 0.91513549 0.82782782
0.29920987 0.49077720 0.36073609
0.40668156 0.39563471 0.98750229
0.38777915 0.87743592 0.49366458
0.42372654 0.98445920 0.92522430
0.88164466 0.33816140 0.50723948
0.85290378 0.25960244 0.89871049
0.95213184 0.85263024 0.27002397
0.81770355 0.84790404 0.96802113
0.29685704 0.29875891 0.38716925
0.39390543 0.37292704 0.76045344
0.41515624 0.98795739 0.41099673
0.47888176 0.84101828 0.85513211
0.98670141 0.32301838 0.37459347
0.76128834 0.33927041 0.89010997
0.77750203 0.86894443 0.46769320
0.86442455 0.98581222 0.89875084
0.02269806 0.00374777 0.03328539
0.00008870 0.99680956 0.50516701
0.00172077 0.48586162 0.03657811
0.99481946 0.51434357 0.50270941
0.50557767 0.04511489 0.97217696
0.50737238 0.99441366 0.48980627
0.51467494 0.49658714 0.00582353
0.51834689 0.50849406 0.51721946
0.97906907 0.23146314 0.26066938
0.99358578 0.23131894 0.76163077
0.98001467 0.74417781 0.28033240
0.00143647 0.71397592 0.74573218
0.47892922 0.20553954 0.26087142
0.51311554 0.26399222 0.76361908
0.48281167 0.76006171 0.25036955
0.50723031 0.75713330 0.75582059
0.22651377 0.97040190 0.23740258
0.25922806 0.99784597 0.73457906
0.25073019 0.48832885 0.26275386
0.24630976 0.50453169 0.75226867
0.74886009 0.97656121 0.23569960
0.72932770 0.99882322 0.73770036
0.75021806 0.49920917 0.26055339
0.74730897 0.52920754 0.75856272
0.23237876 0.24516653 0.01446893
0.23917764 0.23560361 0.48497108
0.26436408 0.75263960 0.99669845
0.26914009 0.74386196 0.49450146
0.75421047 0.25362351 0.96905678
0.73027479 0.24654788 0.49437916
0.74889849 0.77194513 0.97670603
0.74663621 0.76849390 0.49385404
0.41165059 0.19881820 0.45331204
0.43618960 0.19468852 0.93513485
0.44521789 0.70912687 0.43578402
0.45242624 0.70066956 0.92809670
0.95356987 0.19541319 0.44461052
0.94975789 0.21046649 0.94264742
0.93995775 0.67013798 0.44592400
0.92410337 0.69806642 0.93547605
0.20175307 0.06571330 0.05642115
0.20257705 0.06193653 0.54577306
0.18839842 0.56577027 0.04025101
0.20446713 0.57352537 0.57576808
0.67466762 0.04986985 0.07325454
0.71627578 0.07411435 0.57397525
0.70483119 0.56878127 0.04688101
0.70461403 0.55072286 0.55429942
0.31046958 0.04982413 0.43263619
0.31541152 0.06317775 0.94561872
0.30583723 0.57192911 0.44003227
0.30672349 0.57086076 0.92637791
0.81963794 0.05964282 0.45034861
0.80206086 0.06964004 0.95466164
0.81283265 0.53768267 0.43998690
0.83262926 0.55378082 0.93381887
0.05174505 0.19973306 0.07523104
0.07467941 0.17627210 0.55904669
0.04140008 0.69345826 0.04963373
0.05332868 0.67608669 0.57447092
0.55322268 0.18990976 0.05802342
0.54354294 0.19420270 0.56491580
0.57324133 0.70376213 0.04779099
0.57532305 0.69187741 0.54315190
0.12080981 0.11057317 0.39701322
0.12407292 0.13951570 0.87919358
0.11799504 0.62865330 0.38387551
0.10672013 0.62700323 0.87280942
0.61657328 0.13858989 0.38054021
0.62598765 0.11901694 0.86564499
0.63829949 0.60129856 0.37065541
0.63025045 0.63365898 0.87327971
0.43710527 0.45844079 0.18299353
0.44620606 0.44418144 0.68350913
0.44640636 0.93620686 0.20138004
0.43199385 0.94575743 0.68499792
0.94977955 0.42589076 0.21425528
0.94760890 0.41836563 0.69406113
0.94557663 0.94539176 0.18621829
0.93423842 0.95308376 0.68995386
0.18610049 0.30857797 0.30214791
0.18607417 0.30897626 0.81422045
0.19229931 0.79057042 0.30126226
0.17962264 0.82413865 0.80704565
0.69757317 0.31825714 0.30333476
0.68638663 0.32036962 0.79841629
0.68838905 0.78845165 0.30711202
0.69686584 0.81433353 0.79660555
0.31059597 0.29948507 0.19577569
0.30445833 0.31383092 0.69877494
0.31840744 0.78225370 0.18821863
0.29898460 0.81577250 0.69128792
0.80894638 0.29632196 0.18224842
0.80040437 0.29145911 0.68442384
0.80085979 0.79554115 0.18071111
0.80877555 0.80268594 0.68481122
0.06597177 0.43720395 0.32920548
0.06826889 0.43533305 0.79727288
0.04210702 0.92171616 0.30998192
0.04661701 0.93819596 0.80875427
0.55509261 0.44133851 0.29167091
0.56742030 0.47011220 0.79800915
0.56218251 0.94044151 0.31856758
0.55648449 0.94051360 0.80697485
0.14815020 0.37680743 0.12217784
0.12146935 0.36552203 0.63378167
0.12883007 0.88473077 0.11135349
0.12101954 0.88218356 0.61129143
0.63425262 0.38196091 0.10509725
0.62482731 0.37666940 0.63145030
0.63010717 0.87191363 0.12735582
0.61587448 0.86454336 0.62808981
0.17794647 0.18059802 0.19685136
0.21773879 0.17757939 0.69761599
0.18898286 0.68860747 0.17350866
0.18526500 0.69616952 0.69547524
0.67669675 0.19723324 0.18964861
0.66817593 0.19930671 0.69265123
0.69025762 0.67861823 0.18656919
0.68928846 0.70037512 0.67889983
0.45490783 0.06014590 0.31881805
0.43754854 0.05316418 0.80073842
0.44900750 0.56835199 0.30493480
0.43940854 0.56944316 0.80279491
0.94469947 0.05563762 0.31368922
0.92995754 0.05828846 0.81734088
0.93137935 0.55094468 0.31725071
0.93618509 0.54074061 0.80347056
0.06822582 0.06043529 0.21116877
0.06205197 0.05966422 0.70579146
0.06040544 0.54627296 0.20473811
0.05357571 0.54866374 0.69130615
0.56313355 0.05069979 0.19490977
0.55129127 0.05306500 0.68598673
0.55327507 0.57126326 0.18474669
0.54798050 0.58182708 0.67961681
0.30006545 0.18361140 0.30978058
0.31865224 0.20841777 0.82572096
0.29794121 0.65544007 0.28710910
0.29324457 0.70421143 0.80695723
0.80738461 0.18665619 0.30428625
0.80396283 0.19545493 0.80448143
0.81777150 0.68449401 0.28837926
0.81074702 0.70411393 0.80864005
0.38025385 0.12387936 0.12872288
0.37505939 0.12137467 0.62764931
0.38226333 0.62134560 0.11538098
0.38121724 0.63327404 0.62740062
0.87165282 0.13609576 0.13479192
0.88442233 0.11734971 0.61936962
0.88641885 0.62296459 0.12161409
0.86204073 0.61579521 0.62901932
0.20366136 0.45280065 0.45840441
0.19930573 0.43850210 0.93080696
0.18525219 0.92934426 0.44758445
0.19329185 0.96635546 0.92844293
0.68303781 0.42043740 0.44343756
0.69575632 0.45590471 0.92536765
0.69374609 0.95257961 0.44457833
0.68731554 0.94795950 0.94050892
0.44932692 0.31766900 0.05926316
0.43261203 0.31477743 0.57252813
0.42977778 0.80059312 0.06245116
0.45202623 0.80398501 0.55783955
0.94296748 0.31343117 0.07390007
0.97154951 0.29834078 0.57141402
0.92832659 0.81472538 0.05609080
0.93283470 0.79560184 0.55731609
0.07246103 0.30692844 0.44215836
0.07101102 0.31925442 0.96106923
0.05160481 0.80226240 0.44727625
0.04149303 0.81505300 0.94310890
0.53080838 0.30976099 0.44079724
0.55918208 0.30251928 0.93634576
0.57814225 0.80750040 0.43587929
0.55377821 0.82737032 0.94912566
0.31436545 0.45168952 0.05694251
0.33149028 0.46387227 0.55840295
0.31125083 0.94166622 0.05493290
0.31102886 0.94224593 0.55775235
0.79966107 0.43688153 0.05823024
0.80711947 0.43160266 0.55778186
0.81874511 0.94290628 0.05176316
0.81435023 0.94276157 0.55650069
0.37382882 0.39165689 0.36260524
0.37910055 0.39325545 0.87778635
0.37495842 0.88365512 0.37448804
0.36863505 0.89162934 0.87815122
0.88317927 0.36268066 0.37686789
0.86804202 0.37654803 0.87595664
0.86643326 0.85964681 0.37093106
0.86268506 0.87846827 0.86689833
0.25715769 0.00235158 0.99641180
0.25012592 0.99084493 0.49422778
0.25672319 0.50752150 0.99121176
0.26200448 0.51923973 0.50810514
0.74708925 0.00449584 0.00854154
0.75254343 0.01055751 0.50748850
0.75917563 0.49971926 0.98938426
0.74831533 0.48329815 0.49774972
0.23928144 0.24100949 0.24629915
0.25748059 0.24847663 0.75872179
0.24581425 0.72992571 0.24064788
0.23477279 0.75952969 0.75178551
0.74551037 0.25212245 0.25053460
0.73995146 0.24494181 0.74560960
0.74706826 0.73881846 0.24500036
0.75163834 0.74654286 0.74227332
0.00003831 0.00154271 0.25409259
0.99443928 0.00622912 0.75613406
0.00567847 0.49193929 0.27035522
0.00054126 0.48619571 0.74970694
0.50504191 0.00104466 0.25893884
0.49746474 0.99159054 0.74470565
0.50071453 0.51179885 0.24384330
0.49885697 0.51347107 0.74063826
0.00207073 0.26093114 0.01490650
0.02033434 0.24584677 0.49993466
0.98203213 0.75455006 0.99698008
0.99684758 0.73817894 0.50727602
0.50141937 0.24496261 0.99409457
0.47863426 0.25053112 0.50658076
0.50027518 0.75474300 0.99745842
0.51234043 0.75271576 0.49074005
Direct configuration=      3
0.13350270 0.19421884 0.46063823
0.01081763 0.14234801 0.85819804
0.08725343 0.71950789 0.33641859
0.11421626 0.52597394 0.88426111
0.63970544 0.14399454 0.49776046
0.49788968 0.12000841 0.87454496
0.66308505 0.73002038 0.41312820
0.72724138 0.61026983 0.92085110
0.09898535 0.99132124 0.40908995
0.23035969 0.14301729 0.93064327
0.02064363 0.59883478 0.41121451
0.21892264 0.63876832 0.86189043
0.60224841 0.14192623 0.27105452
0.66925745 0.11113770 0.77938116
0.59990904 0.56686303 0.46856126
0.68057710 0.52374265 0.83398717
0.01905860 0.14574346 0.36033179
0.08982747 0.08987212 0.98276314
0.13324854 0.51290506 0.38127130
0.09431375 0.75267937 0.81778449
0.60798535 0.01840118 0.39035617
0.73499519 0.15349479 0.89987128
0.65896240 0.47768934 0.34620720
0.66474648 0.76395582 0.90004912
0.14132781 0.13603380 0.26537987
0.13083020 0.24146177 0.92122557
0.19798773 0.59465562 0.29044534
0.00096386 0.64369601 0.85761371
0.63305562 0.24624103 0.36864524
0.60381804 0.09673235 0.97927457
0.74957222 0.59016839 0.35924751
0.51693752 0.66579639 0.81991637
0.23391318 0.12652028 0.38573368
0.15913176 0.07326877 0.78372911
0.13825042 0.64930255 0.50770456
0.12882899 0.62038066 0.76141731
0.51790494 0.13431861 0.38335984
0.61623706 0.01585629 0.87772470
0.65954009 0.59046115 0.24808909
0.63345039 0.63829860 0.75561277
0.10143848 0.07591423 0.50745805
0.10517969 0.19251591 0.77892184
0.24360087 0.67112208 0.40218736
0.13923968 0.67863638 0.97828266
0.73895428 0.14033681 0.40556469
0.60017270 0.25102784 0.82527956
0.52296426 0.66055198 0.33688095
0.59115989 0.58121923 0.95388295
0.99957322 0.37719742 0.11616043
0.17205145 0.36089219 0.51775619
0.12479907 0.76031785 0.11924012
0.23817723 0.87435779 0.62881246
0.63568226 0.27135997 0.12461201
0.61449374 0.49607365 0.60230261
0.49964734 0.86424273 0.13412877
0.61982096 0.94097575 0.70254877
0.13019290 0.44783331 0.22751637
0.01360898 0.42941338 0.58259857
0.12991162 0.99502824 0.12286976
0.13036193 0.87883093 0.74818113
0.72229605 0.39070497 0.17549276
0.54044713 0.38566352 0.71748649
0.72676894 0.87624762 0.15083411
0.58302760 0.79337555 0.70958498
0.08919264 0.27687635 0.21253052
0.15844792 0.48017571 0.62362054
0.14070998 0.86637231 0.00998619
0.08442836 0.75542730 0.65844679
0.56189914 0.37544580 0.22064335
0.70077469 0.40401101 0.73171584