Li192 P32 S160 Cl32
1.0
20.312311 0.000190 -0.000113
0.000190 20.312339 -0.000033
-0.000113 -0.000033 20.312424
Li Cl S P
192 32 160 32
Direct configuration=      1
0.14574062 0.23796980 0.38925593
0.01776815 0.12416825 0.88714504
0.08743191 0.73420082 0.34826586
0.15609952 0.51190337 0.84569418
0.64469861 0.14089560 0.50032727
0.50426688 0.11342574 0.88833245
0.64563421 0.72998227 0.39598061
0.74299809 0.64316972 0.89909477
0.14219386 0.00891868 0.35600299
0.24407549 0.14631309 0.90533380
0.00457031 0.60911181 0.38976061
0.23638403 0.65204784 0.89778417
0.58704670 0.15204361 0.27679616
0.65284785 0.09612470 0.76694813
0.60480344 0.58293543 0.48335060
0.64535326 0.51162947 0.86197741
0.02043479 0.15038996 0.33814706
0.12557535 0.04350428 0.95607785
0.10589070 0.50807075 0.39885307
0.10477265 0.73904967 0.85232247
0.61379272 0.01115099 0.39758892
0.72760636 0.16077037 0.89988246
0.64370818 0.50195651 0.34099457
0.65167477 0.74060115 0.90633207
0.19543529 0.11628188 0.28005519
0.14178952 0.23907551 0.89970826
0.14033793 0.60276968 0.26950691
0.01005852 0.63482772 0.85231034
0.64103372 0.24325899 0.40470292
0.60366604 0.10737260 0.98985768
0.74734349 0.60172343 0.35925188
0.52134845 0.65464465 0.83917616
0.21501496 0.13415145 0.45319475
0.15057115 0.03768298 0.79376449
0.10166699 0.61089657 0.49778285
0.11773688 0.63334794 0.75582213
0.50984989 0.10315641 0.41068910
0.60810017 0.01304316 0.88580437
0.62348437 0.63394901 0.25658792
0.65117122 0.61153966 0.75755650
0.08004912 0.08894507 0.48107992
0.09625992 0.16757249 0.76407904
0.23026983 0.64902363 0.40788293
0.11360767 0.61551219 0.98670210
0.73402130 0.11367119 0.36588354
0.59008167 0.23892469 0.84338628
0.51660073 0.62071793 0.36553546
0.59408918 0.59877804 0.98091840
0.01530827 0.39859339 0.10125160
0.16132726 0.35285164 0.51303470
0.09837094 0.77011221 0.14418074
0.23227804 0.90213315 0.65806128
0.62438433 0.26595673 0.13195240
0.60072152 0.48847449 0.60657494
0.51551878 0.84497033 0.15207244
0.65121394 0.98224247 0.65942280
0.15797804 0.41535194 0.22927818
0.01776116 0.39062320 0.59795257
0.14889245 0.99695376 0.14403899
0.10723747 0.87370645 0.74465993
0.70228505 0.38773778 0.21333029
0.54406688 0.36239716 0.71107493
0.74530495 0.89018162 0.14448184
0.60172861 0.84386608 0.73648718
0.10110990 0.27793489 0.18950584
0.14029771 0.48392886 0.63413485
0.11625859 0.89753899 0.00857372
0.10164543 0.75915994 0.65208240
0.52095645 0.37245201 0.15883870
0.70712178 0.39018036 0.70565282
0.66421626 0.76213488 0.09124426
0.64950365 0.76417936 0.59473505
0.24283193 0.37376947 0.10675911
0.14464181 0.25465906 0.61631985
0.14567454 0.89841363 0.24154873
0.00910956 0.89343181 0.60693934
0.58163406 0.40351488 0.01296266
0.63381446 0.25934789 0.60927407
0.60738308 0.89879205 0.02201979
0.74259521 0.86473962 0.60999054
0.13534646 0.28662027 0.04286217
0.06741339 0.34487844 0.72871140
0.01245069 0.91020370 0.10078830
0.10429528 0.98985526 0.60745471
0.72030517 0.35667215 0.04766696
0.53577291 0.38115513 0.54235591
0.62854431 0.86478299 0.24750006
0.60809235 0.90679863 0.51198191
0.12427562 0.46673639 0.04883490
0.21469443 0.38590516 0.70991680
0.23672384 0.86082212 0.10746416
0.14676867 0.85202968 0.51862835
0.63086142 0.49586231 0.13155920
0.70099682 0.36419824 0.53937098
0.64873618 0.98584937 0.15821065
0.51159524 0.87394940 0.61759882
0.27080677 0.15368438 0.09442868
0.36934462 0.23351555 0.62887264
0.29624999 0.54187344 0.15026456
0.36355543 0.65243742 0.50781301
0.84949872 0.01026786 0.15663054
0.77453152 0.08041238 0.66240092
0.79435149 0.63952430 0.04197701
0.97717365 0.64317557 0.66484373
0.36592023 0.01253093 0.14286767
0.48956567 0.08076816 0.59107086
0.42260672 0.52815971 0.08459496
0.39196098 0.65588011 0.73778733
0.94291100 0.22318069 0.14077643
0.79006181 0.21498036 0.60932044
0.90499206 0.50960466 0.10338489
0.75999477 0.65201126 0.58921489
0.40033296 0.24054688 0.14629250
0.36135121 0.12040519 0.52035003
0.36396466 0.66117854 0.00684233
0.48511966 0.66811254 0.63163520
0.98588031 0.08593482 0.09626441
0.90060960 0.15406943 0.73705938
0.96320133 0.61675516 0.03936488
0.84398759 0.60408250 0.73833568
0.41025219 0.09860890 0.01630297
0.29659686 0.11454397 0.72003699
0.27339073 0.69400154 0.10669520
0.42017007 0.52089290 0.58906822
0.76030817 0.12687720 0.13886156
0.87993794 0.13807460 0.50844221
0.79542430 0.60399800 0.19973617
0.91163282 0.59692014 0.52240627
0.49482553 0.13707260 0.14610850
0.45965017 0.14593524 0.72310751
0.48224562 0.66571294 0.13642292
0.28707619 0.55300505 0.64987592
0.85338357 0.15199719 0.02074853
0.91345901 0.02227354 0.60091447
0.88808093 0.73922176 0.12681534
0.85578843 0.74178531 0.60793414
0.39222050 0.13942562 0.24697928
0.35003509 0.00729257 0.64936524
0.37462222 0.69486889 0.21854953
0.29504471 0.71346959 0.61112778
0.88989260 0.14382824 0.24318289
0.96884208 0.20490028 0.62682479
0.95687446 0.63660734 0.21556100
0.81059721 0.51836123 0.63705193
0.44613491 0.28265458 0.35671844
0.26994039 0.34504188 0.90263609
0.46464701 0.79373096 0.36191996
0.36656640 0.84964783 0.98955061
0.76456795 0.38037919 0.36522619
0.84338143 0.48269437 0.84190897
0.90038144 0.75676740 0.34984518
0.98156749 0.90848412 0.91407527
0.34969135 0.40078605 0.25459208
0.47039245 0.46492349 0.88269541
0.29219424 0.95384116 0.35933605
0.39578799 0.84484178 0.76147198
0.91417627 0.48506030 0.40674149
0.89657351 0.34396138 0.76074404
0.79596349 0.88270550 0.29574730
0.88015850 0.88385591 0.76399280
0.36233138 0.37183910 0.48639690
0.33162787 0.49108999 0.83640636
0.28853764 0.78965034 0.38007620
0.30442350 0.96400780 0.85196952
0.85937590 0.45531352 0.27667364
0.98498062 0.39602764 0.89493958
0.97451376 0.89203140 0.44963540
0.87942144 0.77049395 0.86839484
0.46175301 0.44915712 0.37353391
0.44326521 0.29086987 0.87235362
0.38820925 0.85244510 0.25945211
0.28875032 0.79931735 0.88314306
0.87772425 0.29202712 0.29067028
0.85755301 0.36399901 0.98655740
0.87638302 0.98731703 0.37698762
0.75254947 0.90735588 0.84504671
0.29290735 0.46804312 0.36338880
0.40499902 0.39911067 0.98923931
0.35617367 0.84423112 0.49114495
0.45482528 0.95994984 0.88942289
0.87229172 0.35365491 0.47852806
0.86155011 0.26016528 0.89111764
0.96226629 0.86295253 0.28476222
0.83311192 0.85191003 0.98470857
0.28431678 0.29569257 0.37561987
0.39118827 0.36415600 0.76191331
0.45485432 0.95133662 0.39550991
0.46665715 0.79664165 0.87002591
0.99247824 0.35229830 0.35029482
0.75663195 0.35134529 0.88705892
0.82977982 0.84905321 0.47631557
0.86760784 0.00288974 0.87662403
0.02588812 0.98828859 0.00483282
0.00734662 0.98873399 0.52589536
0.00705176 0.50183664 0.02762457
0.00359603 0.52334544 0.47740417
0.51238405 0.02553305 0.97246453
0.51963539 0.00343791 0.48518867
0.50229598 0.49119771 0.99519473
0.51788336 0.49650452 0.51398209
0.98117636 0.24282191 0.25283618
0.99835901 0.24185341 0.73735520
0.99279620 0.74567622 0.26747096
0.03040141 0.72069115 0.75340650
0.48319793 0.22245299 0.24299943
0.49296118 0.26191814 0.76633330
0.47407695 0.76006266 0.24324826
0.48457694 0.74715321 0.76061262
0.22092728 0.99581346 0.26214354
0.25759959 0.00003997 0.74283172
0.25612742 0.48214995 0.24748716
0.24137459 0.49547998 0.74951805
0.75338872 0.97668200 0.22679466
0.72983979 0.00659089 0.74650594
0.74494335 0.49700864 0.26179637
0.76023230 0.50717262 0.74737879
0.23021964 0.25031572 0.98063004
0.23224238 0.25435622 0.47398504
0.27726873 0.74667806 0.99302491
0.27736315 0.74281814 0.49168531
0.76966115 0.26795590 0.97649534
0.71685557 0.24750140 0.51560285
0.74772914 0.73899673 0.99026905
0.75753680 0.76360916 0.53548006
0.42971398 0.18755063 0.44430283
0.43817209 0.19725456 0.95046611
0.45157065 0.69273997 0.43243640
0.45671811 0.69435879 0.93709630
0.95055459 0.19576338 0.43115885
0.93976811 0.19035003 0.94783199
0.93574648 0.69119783 0.44616555
0.94219459 0.69440892 0.93852808
0.20107704 0.06105433 0.05409862
0.18711918 0.05832915 0.55208866
0.20046515 0.56526433 0.05705673
0.19558103 0.56442331 0.56331500
0.68766223 0.05931045 0.06655432
0.69756345 0.05510358 0.56705619
0.69338638 0.56353406 0.05287526
0.69867656 0.55199576 0.55874871
0.30537086 0.05040049 0.44091562
0.32200551 0.05482829 0.94169303
0.30968606 0.56339069 0.44120427
0.31449611 0.56663530 0.93415813
0.81029185 0.06330608 0.44432053
0.79957137 0.07118997 0.94694677
0.81760903 0.55432457 0.44377037
0.81151082 0.55494646 0.94140759
0.04879162 0.19795248 0.07119959
0.06407787 0.18989231 0.55184440
0.05375904 0.69795818 0.05597440
0.04555698 0.69024004 0.56905091
0.56250421 0.19326117 0.06180805
0.54831349 0.18589206 0.56155624
0.57086516 0.69082076 0.05724359
0.57138104 0.68490725 0.54830481
0.12679080 0.12279893 0.37713692
0.13064299 0.12607328 0.87133673
0.11909996 0.62440426 0.38200297
0.12556291 0.62452454 0.87257363
0.62227790 0.12831885 0.38624432
0.61910612 0.12898057 0.87411769
0.63168735 0.61605145 0.37071365
0.63124329 0.62619209 0.87204091
0.43583200 0.45260932 0.18061670
0.44947597 0.44556518 0.68632598
0.44586724 0.93913298 0.19341215
0.44113929 0.93681694 0.68865524
0.94484321 0.43625663 0.19322675
0.94667788 0.42889133 0.69011240
0.94181646 0.94188232 0.19242993
0.94627202 0.95064343 0.69501008
0.18567008 0.30949626 0.29394910
0.18902875 0.31013184 0.80867007
0.18346828 0.80700220 0.31086784
0.19011292 0.81136659 0.80704538
0.68254133 0.31063237 0.31155375
0.68468174 0.30722746 0.80136366
0.70311979 0.79872748 0.31243454
0.69036979 0.80893339 0.81060753
0.30971494 0.30913578 0.18301655
0.30592348 0.30929746 0.69536209
0.29967939 0.79630660 0.18809732
0.30610030 0.80927152 0.68769226
0.79784959 0.30918567 0.19656993
0.80308427 0.30813384 0.68945228
0.81659433 0.80679932 0.19671708
0.81159811 0.81436290 0.69702037
0.06377842 0.44093415 0.30696694
0.06034573 0.43826744 0.80918291
0.05364064 0.94065933 0.30913624
0.05783559 0.95044511 0.82006530
0.55468903 0.43755635 0.29047053
0.56188256 0.44857776 0.80185222
0.55576741 0.93454577 0.31647897
0.55337623 0.93626209 0.80850035
0.12824454 0.37338358 0.12229716
0.12787307 0.36898403 0.62782964
0.12533313 0.88216576 0.12538210
0.12099336 0.87432913 0.63070979
0.63006332 0.38006781 0.11912013
0.62204089 0.37445760 0.62409091
0.63036595 0.87016454 0.13206422
0.62542289 0.87391356 0.62454059
0.19088931 0.19248850 0.17905508
0.19792876 0.18560802 0.69785524
0.17760815 0.68970218 0.19027363
0.19703429 0.69100626 0.68545073
0.68125465 0.18868741 0.20226748
0.69596452 0.18478935 0.68886947
0.70183477 0.68667792 0.18433632
0.69483867 0.69740478 0.68876649
0.44134005 0.04992862 0.31713838
0.43645369 0.05303198 0.80463683
0.43854530 0.55360727 0.31009875
0.44238515 0.56206145 0.80709251
0.94229977 0.06026342 0.30900821
0.94389389 0.06800348 0.81134725
0.93606962 0.55185358 0.30554757
0.93821072 0.55160947 0.80226695
0.05833245 0.06295867 0.19274385
0.06717619 0.06282304 0.70037062
0.05562723 0.56198247 0.19406033
0.05670357 0.55142650 0.68784577
0.56270478 0.05637528 0.20320757
0.55633024 0.05769397 0.69235729
0.55135083 0.56935079 0.18634176
0.55715538 0.57194342 0.68796045
0.29861495 0.19373472 0.30398001
0.31276217 0.19455451 0.81429147
0.29430136 0.68840045 0.30887107
0.30628973 0.70011839 0.81120000
0.80413572 0.19591168 0.31431837
0.80620890 0.19093741 0.80927470
0.81701969 0.67855752 0.29878847
0.80898788 0.69424740 0.80966966
0.38050848 0.12565974 0.12791696
0.38335365 0.11880707 0.63409157
0.37180128 0.62888682 0.12040650
0.37614745 0.62652166 0.62398396
0.87623451 0.12342941 0.13009840
0.87458029 0.13214269 0.62399877
0.88053400 0.62392972 0.12189780
0.86677436 0.62434262 0.62678829
0.20001926 0.44482336 0.44432886
0.19849220 0.44605363 0.94410463
0.19415756 0.93215049 0.43943582
0.20295590 0.94533712 0.93725390
0.69169621 0.44021142 0.43868761
0.69028511 0.43672927 0.94548002
0.70198176 0.94052379 0.44403008
0.68953707 0.94644701 0.94524508
0.45232332 0.31540372 0.06730557
0.43576406 0.30677219 0.56103162
0.44840924 0.79932653 0.06336442
0.44836709 0.79306566 0.56027225
0.93441779 0.31281966 0.06061330
0.94729439 0.30329554 0.55500383
0.93949639 0.81770922 0.04954413
0.93582869 0.81518109 0.55254226
0.06544376 0.31450156 0.43907402
0.05589031 0.31013256 0.94933483
0.05904842 0.80369932 0.44688954
0.05747851 0.81517095 0.93550530
0.54394954 0.30534792 0.44209475
0.55367196 0.30989272 0.93956294
0.56413325 0.81033441 0.43898103
0.56490516 0.81491264 0.94504179
0.31936386 0.45541437 0.05730912
0.31359770 0.45263292 0.56536368
0.31555059 0.93887565 0.06054793
0.30135805 0.93625588 0.56299825
0.80579495 0.44172687 0.06135117
0.80730571 0.42961780 0.55289869
0.81049218 0.94683612 0.05639532
0.81951089 0.94466202 0.55882987
0.37071578 0.37524950 0.36954945
0.37845358 0.38890086 0.87524841
0.37377118 0.86886462 0.37527699
0.37798585 0.87351681 0.87497709
0.87957819 0.38075002 0.36710650
0.87249080 0.37338122 0.87154720
0.88395499 0.87240856 0.37411003
0.86744240 0.88695170 0.87703372
0.26058432 0.99947296 0.00000052
0.24567724 0.99419494 0.50076445
0.25810531 0.50933569 0.99509753
0.25438430 0.50652986 0.50391945
0.74705072 0.00575107 0.00435071
0.75555585 0.00085382 0.50399855
0.75051700 0.49954397 0.99936298
0.75506925 0.49467921 0.49568566
0.24759456 0.25105371 0.23861449
0.25156855 0.24881690 0.75677103
0.23623535 0.74619336 0.25035468
0.24768792 0.75247331 0.74773905
0.74231714 0.25054616 0.25554130
0.74797198 0.24822890 0.74908008
0.75748677 0.74249422 0.24788842
0.75110772 0.75380552 0.75108841
0.00094457 0.00275522 0.24863767
0.00433584 0.00738565 0.75591593
0.00303671 0.49805366 0.24902342
0.00000723 0.49205424 0.74755557
0.50153734 0.99574127 0.25677197
0.49810081 0.99576743 0.74854748
0.49589611 0.50517107 0.24388250
0.50268135 0.50841873 0.74489689
0.99510566 0.25314909 0.00596951
0.00806917 0.25034701 0.49236327
0.99936679 0.75702165 0.99416719
0.99561931 0.74901776 0.50349838
0.50259392 0.25283708 0.00500730
0.49022344 0.24446988 0.50217959
0.51034393 0.75048821 0.00175144
0.50969525 0.74622318 0.49566268
Direct configuration=      2
0.14707314 0.23697307 0.38965760
0.01755799 0.11953000 0.89090438
0.08774425 0.73497675 0.35144477
0.15483920 0.50990758 0.84236480
0.64300337 0.14681128 0.49875461
0.50368776 0.11720345 0.88567757
0.66272693 0.72804684 0.41081639
0.74478335 0.63997372 0.89241590
0.14535435 0.00537147 0.35587207
0.24509301 0.14337417 0.90503142
0.00698346 0.60722437 0.39732543
0.23669156 0.63973404 0.87757678
0.59842510 0.15309834 0.27227358
0.65032302 0.09496403 0.76494225
0.60114704 0.58413226 0.48532121
0.64499505 0.50932643 0.86104320
0.02008960 0.15003650 0.34085206
0.12549836 0.04074736 0.95965668
0.10795351 0.50881169 0.40605754
0.10553229 0.73811043 0.84828582
0.59908710 0.01565946 0.40776682
0.72739895 0.16360446 0.90217540
0.64709254 0.50233558 0.34486175
0.65359726 0.73981292 0.90055636
0.16097313 0.10035175 0.25474177
0.14209286 0.23560685 0.90425581
0.13992120 0.60590658 0.27084573
0.00851162 0.63681426 0.84965974
0.64074771 0.24507212 0.40050014
0.60472114 0.10806051 0.98779710
0.74880425 0.60205920 0.36031424
0.51957483 0.65020170 0.84384979
0.24266436 0.13948382 0.39710742
0.14869900 0.03770949 0.79380213
0.11581256 0.62470149 0.50039912
0.11518312 0.63459925 0.75190039
0.50543080 0.14291175 0.37068005
0.60212824 0.01284521 0.88763593
0.62727748 0.63275301 0.26008185
0.64097130 0.61888339 0.75617221
0.10802329 0.09997269 0.47949671
0.10029786 0.16732219 0.76774932
0.23442941 0.65372929 0.40699274
0.12358113 0.62811834 0.98284761
0.73260236 0.11172097 0.36423158
0.59273536 0.23841128 0.84070008
0.52043615 0.62993262 0.36126852
0.60091298 0.60002506 0.98242236
0.01125249 0.39512735 0.10901109
0.16558541 0.34519283 0.51769370
0.10570994 0.76521067 0.14510221
0.23405661 0.90431064 0.65493615
0.62810943 0.26585862 0.12503277
0.60020020 0.48626577 0.60810821
0.51340795 0.85671532 0.14755628
0.62091959 0.95593537 0.70560519
0.15707576 0.41504761 0.23134961
0.01843787 0.39886777 0.58357122
0.11493336 0.99358823 0.10830424
0.11828500 0.88134703 0.74631979
0.71240574 0.38932727 0.20986404
0.54093534 0.36004191 0.71110020
0.74389075 0.89060161 0.14605679
0.59805095 0.79572366 0.71590087
0.09550839 0.27422219 0.18756624
0.13860190 0.48609757 0.63104253
0.14614764 0.85970466 0.01225342
0.10090423 0.76219262 0.65478202
0.53982296 0.37561027 0.19196689
0.70569968 0.38878057 0.70608613
0.64221454 0.75992296 0.11217992
0.65547799 0.77101653 0.58038683
0.23984975 0.37524703 0.11163867
0.11591241 0.25582067 0.64064598
0.13513366 0.89566757 0.24090453
0.00867172 0.89297566 0.61038175
0.56055171 0.39241850 0.02843351
0.63036472 0.25759004 0.61481424
0.61561854 0.89168655 0.02073981
0.73264235 0.90162271 0.64289503
0.13679460 0.28300369 0.04802072
0.04948936 0.35743315 0.71553936
0.01208994 0.90404481 0.09522884
0.10428798 0.99117818 0.60702164
0.72281575 0.35792541 0.04426400
0.53563085 0.38032000 0.54303555
0.60786700 0.84544302 0.24738884
0.61279702 0.91034416 0.51654881
0.11720732 0.45473687 0.03839565
0.20666031 0.38467497 0.71401057
0.23725430 0.89955929 0.14993368
0.13875439 0.85973105 0.51885012
0.63309411 0.49648531 0.12906385
0.69918940 0.36093672 0.54071526
0.64823098 0.98541461 0.16453368
0.50832797 0.89794169 0.60044323
0.26854877 0.15573280 0.09013338
0.37103184 0.23808024 0.63513944
0.27999595 0.54356616 0.13572901
0.36802560 0.64681450 0.50993988
0.85239441 0.01068967 0.15347780
0.77816031 0.05538760 0.64475301
0.80102170 0.64024338 0.03707803
0.97321082 0.64503298 0.66228265
0.36513163 0.01678301 0.14494997
0.48485195 0.08042436 0.58475784
0.42369392 0.52702722 0.08852539
0.39697560 0.64887385 0.73865743
0.93239574 0.22978252 0.14179268
0.78399196 0.20775611 0.61176633
0.90160770 0.50982525 0.11230625
0.75584679 0.64893017 0.57999315
0.38884435 0.24389682 0.12608518
0.34073123 0.13659034 0.52393365
0.35742274 0.65544349 0.00604944
0.47620249 0.69183076 0.63154849
0.98519498 0.09111963 0.09589344
0.88230926 0.13714086 0.73690582
0.96243440 0.61278690 0.04010928
0.84219306 0.60018170 0.73403114
0.40873218 0.09944583 0.01291391
0.29837958 0.11350992 0.72293861
0.28796168 0.71376343 0.11491419
0.42566400 0.52231558 0.59226077
0.75996933 0.11994782 0.13871545
0.87921238 0.13847532 0.50658161
0.79489909 0.60504671 0.20043849
0.90995358 0.59308270 0.52247389
0.49570394 0.12753330 0.13303315
0.46105630 0.14752499 0.71897271
0.46229104 0.69468668 0.13670415
0.29041272 0.55092703 0.65053121
0.84885349 0.15732247 0.01944418
0.91727301 0.01988836 0.59742854
0.88874898 0.73987351 0.13127838
0.85079969 0.74030707 0.59859177
0.39905468 0.14504523 0.24509118
0.35148699 0.01205400 0.63970536
0.36137163 0.61208688 0.23752311
0.29775862 0.71177080 0.60997726
0.88945648 0.14338430 0.24120332
0.96693398 0.19991925 0.62735559
0.95508890 0.63783047 0.22107464
0.80804926 0.51687137 0.63403434
0.44729199 0.28707313 0.36239736
0.27064678 0.34093122 0.90081574
0.49339226 0.84541556 0.36191180
0.35988984 0.84617145 0.99267999
0.76585192 0.37440127 0.36836819
0.84448614 0.48467444 0.84202617
0.89821859 0.75714482 0.35601634
0.98064299 0.88598055 0.89029548
0.35258212 0.40122041 0.25534587
0.47109508 0.45997204 0.88392169
0.26836959 0.89993515 0.34605798
0.38379712 0.86364099 0.76177992
0.91387602 0.48220649 0.41220995
0.87874554 0.36026766 0.75901410
0.79059239 0.88608125 0.29644062
0.88224600 0.86834197 0.76052978
0.36233557 0.37136201 0.48798393
0.33118878 0.48929067 0.83818409
0.35772103 0.75511405 0.39174875
0.29264011 0.95646843 0.85562048
0.85968218 0.45746934 0.28383203
0.99070618 0.37674024 0.87738992
0.96465630 0.88784549 0.45736150
0.85008470 0.76033005 0.88758790
0.46198063 0.45350704 0.38407130
0.44174660 0.28887847 0.86713781
0.39767705 0.84798253 0.26230975
0.29236596 0.79307740 0.88366389
0.88053767 0.29054619 0.29392848
0.89604626 0.41269156 0.98558474
0.87765301 0.98771385 0.37633790
0.75142749 0.90509351 0.84047698
0.29066058 0.46676579 0.36486384
0.40279636 0.39921036 0.98902570
0.35529453 0.84512236 0.49217576
0.43703394 0.97222018 0.89529623
0.87152531 0.34769293 0.48066504
0.86071517 0.26439232 0.90189495
0.95662452 0.86352456 0.28654464
0.83995765 0.85696654 0.98509401
0.28857016 0.29679544 0.37429324
0.38298040 0.37033409 0.76134920
0.41200728 0.97641150 0.41301919
0.46646518 0.79857522 0.86650285
0.99463032 0.35465553 0.35452343
0.75996491 0.35162495 0.89389560
0.80041574 0.85864481 0.46588109
0.86955641 0.99600504 0.88140225
0.02896804 0.00466275 0.02278465
0.00671231 0.98173755 0.52838185
0.98989277 0.48879872 0.02818253
0.00164426 0.51703867 0.48267161
0.50776876 0.03043238 0.97280044
0.51369126 0.98518013 0.50353958
0.49595224 0.48729553 0.99741599
0.51608933 0.49442282 0.51096978
0.98195189 0.24266433 0.25201831
0.01993502 0.24413868 0.72473237
0.99137070 0.74668925 0.27111051
0.02986566 0.72201879 0.75347729
0.49330637 0.21933126 0.27051918
0.49551564 0.25801531 0.76438091
0.50202442 0.78068171 0.24407059
0.49505464 0.73740019 0.75719785
0.22069792 0.97813490 0.25707719
0.25241999 0.99524893 0.74596196
0.25964407 0.48578081 0.24418672
0.24225756 0.49516646 0.75176772
0.75631941 0.98189652 0.22373192
0.72891541 0.99111296 0.73792305
0.74682582 0.49943925 0.26201431
0.76653822 0.49957073 0.74594532
0.23172359 0.24292611 0.98730351
0.24020368 0.24520499 0.46668434
0.27829275 0.74923840 0.99528606
0.28690616 0.73611147 0.49109066
0.76422609 0.25821454 0.97603838
0.71658480 0.24599788 0.51630957
0.76229606 0.73588421 0.96952820
0.75054206 0.75011534 0.51202013
0.42618561 0.19142192 0.44721563
0.43588000 0.19869714 0.94856106
0.45467282 0.69194624 0.43463308
0.45146274 0.69548137 0.93631229
0.95026779 0.19858294 0.43038309
0.94220082 0.19134151 0.94918923
0.93645564 0.68938434 0.44970343
0.94240194 0.69082236 0.93921262
0.20270271 0.05994724 0.05580052
0.19332440 0.05618918 0.55570846
0.19021839 0.55582927 0.05252953
0.19970402 0.56532927 0.56447029
0.68551456 0.05716099 0.06471488
0.69174703 0.05709668 0.56113605
0.69717833 0.56678740 0.05303471
0.69680704 0.54724281 0.55866378
0.31290298 0.04998182 0.44345897
0.32167143 0.05005498 0.94124263
0.31082363 0.56192777 0.43996346
0.30943874 0.56357729 0.93381498
0.81090141 0.06392643 0.44170979
0.79964172 0.06941617 0.94568006
0.81628002 0.55080296 0.44426405
0.81519065 0.55494798 0.94150676
0.04592735 0.20223816 0.07715762
0.06408209 0.18782634 0.55145773
0.05432767 0.69480901 0.05693713
0.04728684 0.69056382 0.57160026
0.56243866 0.19315752 0.05823868
0.54649426 0.18586414 0.56318661
0.56296719 0.68621357 0.05947616
0.56970099 0.68570476 0.55317590
0.13127887 0.12156526 0.36714512
0.13082660 0.12300733 0.87434408
0.12157155 0.62504262 0.38468702
0.12418377 0.62293538 0.86826859
0.62135188 0.13024347 0.38503648
0.61957551 0.12779447 0.87277964
0.63414752 0.61629582 0.37430890
0.63112795 0.62458318 0.87192964
0.44295008 0.44871910 0.18296579
0.44802216 0.44374119 0.68775691
0.44340059 0.94298763 0.19671796
0.43606789 0.94253687 0.68789988
0.94442423 0.43674767 0.20045254
0.94679540 0.42999349 0.68651314
0.94404312 0.94222269 0.19105177
0.94237192 0.94904384 0.69702167
0.18710493 0.30861240 0.29578423
0.18838024 0.30699758 0.81326403
0.18556615 0.80619539 0.31314553
0.19369166 0.81024418 0.80870652
0.68502743 0.31138643 0.30667691
0.68687324 0.31004607 0.80455143
0.70051862 0.79927588 0.31347217
0.68651888 0.80864457 0.80322837
0.30890563 0.30948262 0.18391441
0.30192162 0.31142847 0.69736459
0.30322045 0.80660055 0.19480891
0.30706258 0.81057091 0.68631400
0.80500088 0.30821855 0.19610033
0.80013118 0.30591963 0.68702234
0.81605192 0.80861398 0.19893863
0.80579021 0.81341762 0.68731364
0.06607813 0.44336597 0.31144833
0.06020912 0.44053419 0.80399105
0.05099204 0.94067307 0.31228389
0.05672748 0.94949284 0.82086410
0.55512120 0.43888576 0.29883213
0.56146725 0.44454756 0.80314162
0.56050623 0.93921910 0.31627003
0.54842620 0.94047939 0.80672244
0.12567608 0.37269585 0.12457903
0.12489308 0.37237585 0.62629194
0.12447034 0.87740452 0.12453510
0.12175151 0.87622734 0.63272927
0.63350959 0.38022607 0.12200071
0.62038507 0.37304951 0.62535723
0.62890843 0.87218578 0.13367983
0.62013032 0.87163613 0.62681942
0.19144705 0.19268224 0.17893387
0.19873073 0.18475855 0.69932169
0.18856483 0.69009250 0.19223562
0.19743469 0.69272647 0.68473528
0.68546904 0.19046262 0.19673895
0.69336276 0.18453297 0.69375878
0.70230095 0.68710097 0.18650883
0.68716531 0.69970120 0.68200134
0.44059259 0.05291770 0.31878008
0.43099183 0.05943150 0.80476176
0.44110575 0.55563591 0.31103985
0.44281200 0.55814932 0.81001884
0.94209930 0.06120002 0.30781814
0.94159065 0.06549789 0.81385024
0.93757977 0.55261670 0.31208979
0.93687619 0.55400550 0.79883647
0.06001571 0.06229105 0.19364686
0.06409924 0.06173308 0.70180491
0.05416321 0.56322381 0.19702468
0.05420082 0.55419330 0.68368689
0.56111273 0.05871440 0.20383416
0.55245477 0.05938002 0.69197508
0.55455392 0.56841559 0.18950198
0.55543684 0.56799087 0.68820325
0.30518440 0.19590936 0.30325992
0.31401807 0.19494061 0.81549282
0.30128219 0.68748268 0.31004262
0.31032600 0.69944547 0.80763076
0.80439940 0.19458995 0.31341392
0.80737239 0.19462802 0.81224184
0.81700547 0.67997999 0.30035528
0.80603061 0.69225240 0.79965762
0.38096100 0.12919611 0.12563630
0.38056179 0.12335753 0.63321550
0.36677964 0.62522913 0.12198690
0.37843461 0.62651522 0.62569914
0.87482908 0.12492456 0.12836500
0.87181355 0.12722925 0.62210678
0.88139228 0.62499110 0.12411374
0.86235530 0.62426275 0.62354134
0.20135046 0.44247477 0.44830094
0.19693225 0.43958768 0.93788989
0.19418456 0.93382895 0.44048917
0.20207127 0.94140823 0.94233952
0.69144074 0.43547707 0.43836029
0.69218795 0.43839830 0.94733417
0.70080161 0.94309389 0.44034455
0.68893974 0.94611425 0.94185851
0.45738616 0.31788216 0.06503917
0.43623964 0.30906700 0.56371331
0.44708855 0.79862397 0.06410891
0.45053426 0.79729176 0.55990477
0.92982180 0.31579429 0.05674674
0.94943121 0.30245294 0.55715459
0.93946579 0.81436350 0.04925314
0.93566269 0.81323523 0.55671097
0.06834227 0.31374841 0.44149133
0.05907790 0.31068654 0.95327954
0.05642235 0.80437765 0.44857993
0.06045933 0.81030715 0.93715459
0.54445760 0.30550053 0.44438068
0.55466411 0.30959745 0.93670117
0.57369424 0.80838616 0.44443727
0.56482846 0.81084228 0.94531871
0.31450280 0.45248834 0.05561178
0.31717854 0.45373363 0.56657421
0.31646662 0.93879587 0.06507679
0.30529474 0.93450809 0.56085356
0.80738711 0.44320523 0.06249922
0.80645746 0.42595657 0.55313025
0.80820313 0.94599861 0.05602799
0.81356130 0.94869309 0.56073914
0.37184288 0.37912969 0.37107029
0.37753857 0.38699836 0.87540483
0.37897854 0.86798590 0.37757396
0.37598736 0.87389197 0.87718975
0.88040688 0.37882825 0.37047912
0.87508508 0.37661490 0.87391491
0.87797347 0.87296739 0.37610715
0.86493642 0.87929761 0.87331514
0.26112506 0.99692892 0.00311773
0.24948171 0.99446801 0.50022542
0.25238678 0.50371123 0.99204080
0.25703969 0.50591732 0.50484590
0.74581115 0.00506574 0.00243334
0.75253589 0.00475797 0.50148713
0.75275693 0.50075202 0.99984547
0.75390983 0.49040070 0.49572170
0.24801848 0.25006281 0.24023357
0.25071905 0.24817101 0.75888669
0.24352707 0.74941828 0.25372969
0.24988607 0.75296560 0.74623823
0.74601544 0.25047494 0.25268350
0.74704428 0.24871725 0.75134528
0.75702778 0.74434819 0.25037215
0.74720646 0.75330882 0.74401691
0.00108277 0.00231367 0.24955894
0.00146432 0.00574747 0.75674439
0.00362819 0.49951631 0.25432238
0.99865968 0.49484252 0.74412419
0.50106905 0.99805461 0.25945649
0.49205516 0.00108964 0.74942647
0.49955279 0.50487280 0.24559000
0.50294026 0.50513520 0.74646390
0.99454190 0.25549650 0.00842681
0.00904047 0.24979959 0.49342771
0.99951196 0.75298621 0.99462113
0.99535910 0.74863129 0.50680269
0.50255281 0.25320083 0.00117446
0.48916778 0.24551998 0.50453079
0.50789502 0.74823174 0.00120281
0.51217340 0.74777629 0.49727701
Direct configuration=      3
0.14286761 0.22681822 0.43296503
0.01122968 0.13005901 0.87084551
0.08906459 0.72894930 0.34683225
0.11867656 0.51347679 0.87598095
0.61891000 0.12601390 0.49169529
0.50344442 0.11818360 0.88445463
0.65750486 0.73336432 0.41110461
0.74333252 0.64235520 0.89209478
0.12884501 0.01118420 0.37153551
0.23982319 0.14128235 0.90420100
0.01169059 0.60114848 0.40506845
0.23574171 0.62347110 0.85974847
0.60081447 0.14597254 0.26354405
0.64963600 0.09550162 0.76264566
0.59735991 0.58583860 0.48068037
0.64307912 0.51184542 0.85758360
0.01605634 0.15947850 0.35198853
0.10726255 0.07716314 0.97814332
0.11249169 0.50524380 0.40310716
0.10471809 0.74179333 0.84778991
0.63698857 0.01409348 0.36301279
0.72639550 0.16662175 0.90383429
0.65485913 0.50584052 0.34384441
0.65017489 0.74100449 0.89883856
0.14125085 0.12872244 0.26430907
0.14077954 0.23651626 0.91178468
0.15416402 0.59521199 0.27240304
0.00663266 0.64045098 0.85349563
0.60479410 0.24332718 0.36321290
0.60358108 0.10919130 0.98627164
0.74878723 0.61933575 0.37327329
0.51845425 0.65123151 0.84354267
0.24265412 0.14116750 0.39364835
0.14170301 0.04710717 0.78898203
0.14251076 0.64758542 0.49827400
0.11151645 0.63390935 0.75621707
0.50674325 0.13560020 0.36957620
0.60275179 0.01252552 0.88565601
0.63235366 0.63009519 0.25779082
0.63924466 0.62210903 0.75576636
0.09773620 0.09379638 0.48979524
0.10551467 0.19615334 0.77715211
0.23921083 0.64283816 0.40096268
0.15258292 0.66132079 0.98499867
0.73842037 0.15425617 0.39842327
0.59490488 0.23777293 0.84044324
0.52072462 0.64953294 0.34915858
0.59479736 0.59223283 0.98174188
0.00981312 0.39139007 0.11394365
0.14969682 0.36719959 0.51695187
0.10440752 0.76547248 0.15232683
0.23352486 0.89552036 0.64734083
0.62807743 0.26656490 0.11618629
0.60364184 0.48495379 0.60774331
0.51346644 0.84886127 0.15077599
0.61698578 0.95549791 0.70499142
0.13693556 0.45266529 0.21830090
0.00987815 0.41743114 0.57641660
0.11630031 0.99137656 0.10712150
0.12021204 0.88481660 0.74426163
0.70989382 0.39268953 0.20651480
0.53846155 0.36737268 0.71154799
0.74426741 0.88607691 0.14364902
0.59772018 0.79505074 0.71263068
0.11187200 0.29540231 0.21066152
0.13734218 0.48723844 0.62779658
0.15859094 0.84399377 0.01497927
0.09847675 0.76065589 0.65691164
0.54586402 0.38037922 0.19610804
0.70580988 0.38979350 0.70614739