Li192 P32 S160 Cl32
1.0
20.312311 0.000000 0.000000
0.000000 20.312311 0.000000
0.000000 0.000000 20.312311
Li Cl S P
192 32 160 32
Direct configuration=      1
0.95108620 0.09993531 0.02004067
0.00430835 0.08980230 0.59221031
0.00898593 0.40730557 0.06553043
0.93874323 0.50630470 0.60547733
0.51190452 0.10108315 0.95287754
0.49910299 0.08094660 0.42495219
0.59904009 0.52296278 0.90656147
0.41091820 0.48900420 0.40614663
0.34783575 0.60607299 0.26495417
0.29092907 0.52632448 0.63366797
0.33209806 0.93280680 0.20548777
0.32988076 0.01197178 0.83558915
0.87522967 0.49132458 0.27797259
0.67459172 0.55239856 0.75339620
0.69805898 0.06929260 0.18600029
0.72178408 0.97488186 0.62969014
0.93048250 0.32045375 0.26524836
0.10473176 0.18286097 0.68606514
0.09678179 0.78035064 0.18124394
0.96152336 0.82309380 0.82966264
0.49568578 0.31906311 0.34142706
0.57154138 0.32463495 0.73844312
0.43881777 0.69888573 0.14893721
0.48133971 0.66076683 0.82422195
0.18884107 0.41044053 0.24105180
0.22054381 0.39233535 0.68748300
0.26960285 0.05710774 0.13920205
0.22533142 0.89327670 0.74666256
0.65983926 0.50106819 0.19722866
0.88265952 0.43574426 0.77853993
0.63854749 0.99098503 0.29252913
0.84925909 0.07199884 0.72648241
0.01491866 0.24248068 0.36081045
0.10426601 0.24567351 0.84392092
0.99335295 0.65790840 0.16446777
0.90381265 0.74719184 0.69134116
0.60962268 0.29349216 0.21896162
0.39999500 0.14504264 0.75178179
0.40690845 0.77711707 0.33673904
0.47265294 0.66117296 0.68431071
0.89610307 0.46687216 0.42929897
0.09192068 0.50551594 0.08403055
0.88617863 0.05484967 0.52315435
0.97972421 0.96194777 0.89125683
0.46529280 0.39217965 0.50357408
0.46091084 0.37164121 0.95275650
0.39705015 0.06224934 0.53044407
0.58142796 0.00366827 0.09685930
0.09855204 0.16440191 0.26706249
0.92737387 0.25321553 0.67835994
0.91536597 0.76244187 0.33171265
0.99500480 0.64495414 0.81761834
0.49472592 0.34625355 0.18136669
0.47476803 0.20469405 0.63452641
0.55259056 0.77592768 0.35042115
0.51478642 0.83355259 0.65864307
0.15944643 0.23546032 0.42364396
0.36472967 0.20154428 0.03652171
0.32866090 0.65985778 0.50640063
0.25838503 0.83390996 0.08556954
0.72472985 0.13728950 0.46952814
0.76532022 0.35607246 0.98933250
0.84277020 0.67489712 0.46946064
0.81450709 0.71614572 0.09774950
0.94298088 0.14258616 0.24586504
0.03257917 0.14123962 0.77239595
0.05603371 0.83267018 0.32283605
0.02868280 0.86177649 0.71056198
0.52142245 0.16728967 0.30805837
0.54060836 0.23194245 0.86940164
0.54628747 0.63599013 0.28693701
0.37518182 0.79166803 0.77890862
0.44040351 0.93827678 0.57917312
0.59408635 0.96592553 0.93088582
0.43750434 0.54475066 0.59051975
0.46510136 0.49941329 0.10051989
0.00692238 0.90870153 0.56197481
0.08988427 0.92454222 0.98378412
0.10385172 0.49961171 0.56727098
0.91056901 0.44496716 0.95980619
0.43005630 0.03194469 0.07002953
0.45152045 0.91092675 0.44422544
0.38530990 0.50751330 0.94986874
0.59003443 0.49706773 0.57546495
0.07906219 0.00915177 0.09856933
0.95585139 0.92923119 0.41338138
0.92679711 0.52540429 0.10432197
0.99822873 0.38651065 0.51962283
0.51979492 0.88834663 0.05157819
0.60561323 0.93947044 0.51767044
0.58742659 0.41616866 0.03062723
0.52149220 0.60443754 0.43944384
0.91753780 0.93597408 0.01145165
0.10032918 0.00593323 0.47833812
0.96164588 0.62051065 0.01086632
0.04315884 0.49569776 0.39926234
0.25860724 0.94003782 0.35155675
0.14326881 0.00573405 0.82312578
0.32596339 0.41476196 0.27307064
0.16589383 0.55273920 0.73039933
0.76863239 0.07626009 0.32020023
0.83833608 0.91518179 0.75974072
0.78304009 0.58077471 0.17247207
0.75577649 0.48475412 0.86803069
0.13676852 0.93692074 0.21961868
0.17106276 0.99544747 0.66232289
0.21664717 0.53349983 0.36468518
0.33552712 0.59793815 0.74392018
0.85071602 0.02230764 0.17137047
0.67824001 0.07010920 0.72835533
0.75370329 0.40920764 0.32043106
0.78177090 0.52841926 0.64370491
0.26692020 0.17587249 0.91667933
0.25406246 0.13359926 0.52769430
0.22902603 0.68872771 0.91108116
0.22370957 0.74402255 0.38443560
0.76904319 0.14437812 0.03752862
0.75697674 0.36263124 0.52491391
0.80816443 0.70596306 0.92803941
0.75057247 0.75861017 0.39470100
0.16330801 0.31073153 0.00393496
0.28972962 0.36386450 0.46726029
0.25686441 0.83872282 0.90398749
0.33424686 0.83230952 0.50385207
0.83034986 0.24064332 0.08604901
0.64403044 0.26783687 0.56403734
0.67292341 0.64060284 0.01237892
0.69079934 0.82131640 0.56563119
0.38448462 0.24742952 0.28182640
0.39881214 0.30457531 0.78161943
0.59730779 0.74545630 0.18859189
0.51311971 0.84776217 0.82534471
0.98232453 0.24543460 0.14416183
0.06140408 0.32998692 0.70646059
0.93411555 0.80521154 0.18491714
0.06646191 0.70779330 0.67328463
0.08076928 0.10021152 0.96211349
0.00437601 0.08027819 0.41144273
0.07204119 0.48296018 0.92029468
0.99543853 0.60988990 0.49149164
0.40409595 0.96281320 0.94308434
0.53646409 0.06770392 0.58050210
0.50849772 0.58642851 0.99936687
0.60831970 0.49125923 0.42372894
0.16990221 0.06921185 0.30432060
0.32817238 0.97332513 0.69265398
0.27540391 0.52900512 0.14466438
0.21248124 0.47824562 0.83201436
0.76259476 0.90410534 0.32951990
0.78527987 0.98166026 0.85373879
0.73815692 0.60119043 0.32053189
0.84523403 0.58058052 0.74781335
0.09112184 0.30528131 0.23208396
0.96555879 0.30626045 0.85788071
0.05251304 0.64580488 0.30121404
0.07683040 0.74971474 0.83267531
0.47580501 0.19311054 0.15479845
0.60637063 0.19328814 0.76327181
0.49243954 0.86180160 0.23517451
0.60849767 0.74451708 0.75701553
0.29127622 0.31943608 0.91072354
0.12846327 0.28419091 0.55995408
0.35460937 0.77413910 0.96973850
0.15559544 0.83742429 0.52306191
0.64346042 0.26896376 0.03424738
0.80227889 0.20967377 0.56892686
0.65378712 0.81579181 0.03619287
0.64893488 0.66527632 0.49751102
0.17827133 0.59601475 0.23078604
0.35773482 0.45054390 0.78077808
0.34007289 0.10052118 0.25962594
0.22519430 0.12464060 0.78314473
0.76689032 0.41107484 0.16795806
0.71209534 0.39714590 0.72894957
0.72317176 0.89543965 0.19325036
0.66196716 0.91786143 0.74302255
0.32107723 0.33365705 0.07597665
0.32971864 0.24998932 0.41849675
0.11893578 0.75400610 0.97266322
0.24141094 0.71856322 0.62307481
0.71406847 0.18728291 0.88731331
0.80384316 0.26971105 0.36998361
0.79494808 0.83918326 0.00809777
0.84386888 0.81627373 0.49067353
0.31359430 0.25314120 0.58053776
0.21398776 0.17503628 0.08245158
0.16335787 0.66830824 0.49961462
0.24623347 0.66817406 0.07201096
0.64882730 0.25289581 0.40930575
0.84930228 0.21445285 0.91635079
0.75841865 0.69304659 0.61718173
0.66238471 0.75274700 0.92599115
0.12074898 0.13359313 0.38478671
0.12542453 0.13051772 0.86313266
0.14612057 0.62812284 0.36321467
0.10998771 0.66526023 0.89589865
0.62128205 0.15087076 0.37090110
0.60268965 0.13278384 0.87680769
0.62963378 0.62481243 0.39082968
0.61282697 0.63602288 0.90273393
0.38815238 0.37924514 0.38746431
0.36749016 0.38057339 0.86512621
0.36090095 0.87259936 0.39809749
0.39244763 0.86018034 0.88241348
0.87863165 0.36264269 0.36271810
0.85888832 0.38002484 0.88564163
0.86356000 0.85967871 0.36572520
0.87126768 0.90013891 0.87416103
0.37444440 0.11936359 0.11002287
0.38138656 0.12182442 0.63434312
0.34453053 0.62299793 0.12732986
0.36922352 0.62455012 0.62834013
0.88009568 0.13245717 0.12033952
0.89050126 0.12502339 0.61726365
0.89074470 0.63003368 0.12195516
0.87378093 0.59876130 0.62599639
0.10259561 0.36630548 0.12353417
0.13535338 0.37797161 0.61948493
0.13904117 0.89159263 0.09790337
0.10779684 0.87799643 0.62017885
0.58782905 0.37733549 0.13746865
0.66059372 0.37306386 0.61989718
0.61039694 0.87178722 0.13651835
0.61826516 0.88562926 0.63393905
0.07605867 0.43822431 0.29372005
0.08736553 0.43292707 0.80066911
0.05483097 0.95642337 0.32094436
0.05833674 0.92733212 0.80250767
0.57288641 0.44528237 0.30604831
0.58980220 0.46777351 0.79816065
0.53968712 0.93680466 0.31140111
0.57142284 0.95163475 0.80354432
0.44399822 0.06688760 0.31603791
0.44188928 0.04882695 0.81029470
0.45580155 0.55883665 0.32351432
0.44303673 0.55403407 0.80098919
0.93868978 0.06223748 0.31779571
0.94551985 0.05453016 0.80382917
0.97052489 0.55790881 0.31246782
0.95370089 0.52563961 0.81415542
0.42885528 0.44860108 0.20913261
0.45582704 0.42530474 0.70947526
0.44091609 0.96928653 0.18156857
0.44562302 0.93068241 0.69620164
0.94470566 0.45937027 0.19779544
0.97028031 0.40890451 0.68176285
0.95127743 0.96240313 0.18229743
0.94922818 0.95423170 0.68084061
0.07046753 0.06538754 0.20766453
0.06904036 0.05488307 0.69181045
0.07295430 0.57427804 0.19505478
0.04844367 0.55653816 0.68681164
0.56511066 0.08032326 0.21524467
0.56262318 0.06483558 0.69285692
0.55353327 0.56153142 0.19456290
0.54035430 0.56029441 0.67019891
0.30527324 0.06466832 0.45924896
0.30631655 0.06980721 0.93852378
0.31683984 0.57392191 0.44208169
0.28572095 0.54525237 0.92320938
0.79791567 0.04370248 0.42919679
0.82555710 0.04348044 0.94544243
0.81732942 0.56201074 0.41491138
0.79544636 0.56808865 0.94761295
0.31504339 0.45154879 0.04510828
0.33541512 0.45713328 0.55341091
0.31190916 0.95072578 0.04668840
0.30284537 0.93921108 0.56604309
0.81538931 0.44066730 0.06364876
0.83243409 0.45839333 0.54547553
0.80551935 0.92995219 0.06843014
0.80463667 0.93781100 0.55821781
0.19648399 0.44996502 0.45455366
0.17103283 0.42659216 0.95941965
0.19591054 0.93926946 0.44890979
0.19069957 0.95104873 0.93200891
0.71159243 0.43832476 0.44033557
0.68483650 0.44601324 0.96187247
0.69383366 0.91965545 0.42484168
0.70836578 0.93240231 0.94345709
0.18491350 0.06805075 0.04540294
0.17669122 0.04880405 0.56923680
0.18321635 0.55818371 0.05470993
0.20187327 0.56916831 0.56739385
0.70161832 0.04596325 0.06713156
0.67678163 0.03907633 0.53349028
0.70646922 0.55811077 0.08013664
0.70763174 0.57024948 0.54886902
0.44786275 0.31032994 0.07231750
0.43048260 0.29050506 0.54936677
0.44825760 0.79117779 0.07819650
0.42296772 0.80174417 0.57282258
0.94318104 0.29834128 0.05246370
0.93472680 0.30249638 0.56658305
0.89988759 0.81699088 0.06132866
0.93241526 0.80802452 0.56225672
0.05010072 0.30644797 0.44919505
0.05746943 0.31048966 0.92800477
0.05177639 0.82793662 0.44516467
0.02475609 0.82403306 0.93788530
0.55169040 0.31317152 0.44398245
0.57188936 0.30883986 0.95833695
0.54841244 0.83203794 0.45997499
0.55663252 0.80668892 0.95211186
0.43240054 0.19388785 0.41461778
0.43993835 0.21899106 0.93992613
0.43035145 0.70781956 0.43811702
0.43713491 0.69325815 0.94424077
0.94298834 0.18512647 0.45460936
0.96397045 0.18608988 0.92707602
0.94689407 0.70578141 0.43600444
0.92138480 0.70327185 0.94201505
0.06060863 0.18383301 0.05246043
0.06572107 0.18102309 0.56650817
0.03437377 0.71860873 0.05837013
0.05488592 0.69767662 0.55510838
0.54819777 0.17771387 0.06400306
0.54560688 0.17998283 0.54537835
0.55350091 0.67908663 0.06858208
0.54056945 0.69004065 0.56543747
0.30289090 0.30146373 0.20336307
0.31282753 0.32015174 0.68510273
0.31771269 0.81526358 0.18701586
0.28978690 0.78937001 0.69721985
0.81728462 0.31338445 0.18650296
0.79996934 0.28875050 0.67835545
0.81250721 0.79033111 0.18151534
0.78535165 0.78855991 0.68370014
0.29459029 0.19581545 0.33015724
0.30990949 0.20728274 0.80799119
0.28616230 0.69755698 0.29358141
0.29775220 0.69701875 0.82055653
0.81607686 0.18728155 0.28740048
0.78553138 0.16742309 0.79727740
0.81257948 0.68938542 0.30977389
0.82149516 0.69636121 0.81597295
0.18962486 0.18693482 0.20104183
0.21303520 0.20288081 0.66913437
0.18969670 0.70916821 0.16566409
0.17157110 0.66720834 0.72305073
0.68502361 0.20228165 0.18157344
0.68372655 0.16841318 0.66723311
0.69887948 0.66856234 0.20902191
0.68728686 0.65926756 0.70782798
0.17809752 0.30478174 0.30944558
0.18360809 0.31765288 0.78481795
0.18472072 0.82195769 0.26810411
0.17248053 0.80752156 0.79887338
0.70120362 0.31281276 0.30333501
0.67784109 0.28164968 0.78940702
0.68748896 0.80544844 0.29409018
0.69028410 0.79151616 0.82457789
0.00830874 0.00590006 0.98717143
0.99488142 0.00946122 0.50110690
0.00052587 0.50668083 0.01800783
0.00269360 0.49405420 0.49931539
0.50027129 0.98675602 0.99435292
0.49590761 0.00336622 0.50363224
0.49883575 0.48155217 0.98731018
0.50476014 0.50621813 0.50008057
0.00775701 0.23237180 0.25308168
0.01015502 0.24899593 0.75025418
0.01429521 0.74684108 0.25650190
0.99176535 0.75031580 0.75737454
0.48690943 0.25430562 0.24915960
0.49134739 0.23687637 0.75742687
0.49220980 0.74425406 0.26235002
0.48625843 0.74756364 0.75042317
0.25362910 0.00622713 0.25266574
0.24695543 0.01251371 0.75778980
0.26081663 0.50893524 0.26352965
0.27150067 0.50768595 0.74898472
0.75823262 0.99113747 0.25764582
0.75724034 0.99154961 0.73810886
0.76033780 0.50427450 0.25329811
0.76733034 0.48777407 0.74617212
0.26430996 0.25056195 0.00596756
0.24001714 0.26456857 0.50101131
0.24480687 0.76773621 0.99351123
0.23636396 0.75425654 0.50135040
0.74767155 0.24074096 0.99279797
0.73997255 0.25781124 0.47336931
0.73419422 0.73905733 0.01746587
0.75907281 0.73946529 0.51151306
0.99716969 0.01103494 0.25419578
0.00625048 0.99808483 0.74764912
0.02065535 0.49871672 0.24573380
0.01229755 0.47869000 0.74473364
0.49931074 0.01278173 0.25450802
0.50287789 0.99639275 0.74353162
0.50846695 0.49926513 0.26126626
0.50993048 0.50035776 0.74502528
0.24926160 0.00339431 0.99185139
0.24338116 0.00288137 0.50795161
0.24062620 0.49416234 0.99716135
0.25946396 0.51188100 0.50441222
0.76156903 0.98994436 0.00347931
0.74427081 0.98016821 0.48849264
0.75621825 0.50504470 0.01275194
0.76586128 0.51297644 0.48262191
0.00743912 0.24627572 0.99312110
0.99691795 0.24416399 0.50831351
0.97046608 0.76979006 0.00266343
0.99811718 0.76333832 0.50536244
0.50298222 0.25340960 0.01153803
0.49261171 0.24194752 0.48345166
0.49746660 0.74556123 0.00701986
0.48715393 0.75729151 0.50977707
0.24262481 0.24565745 0.26303894
0.25498631 0.25974338 0.73745652
0.24518163 0.75830890 0.23122389
0.23213660 0.73852286 0.76376837
0.75471737 0.24933425 0.23835839
0.73974403 0.22814567 0.72623153
0.75118266 0.74235981 0.24549279
0.74408997 0.73181201 0.76170139
Direct configuration=      2
0.92264548 0.08393929 0.00947146
0.00311571 0.08271620 0.59981223
0.00576339 0.38957514 0.05420565
0.98496722 0.54442468 0.59961940
0.52690440 0.09564306 0.95063488
0.53100789 0.09736084 0.45084740
0.56696945 0.47809582 0.90699167
0.41068309 0.51528116 0.41335840
0.36839032 0.55060678 0.22856142
0.28576243 0.54501100 0.64678787
0.33398053 0.91131693 0.25135499
0.33927754 0.00357167 0.83635264
0.86396904 0.48345241 0.29842474
0.66119293 0.54049657 0.73079443
0.71433527 0.08008157 0.16545389
0.73226638 0.93506563 0.62415789
0.91715794 0.35321727 0.24122401
0.08094419 0.21954380 0.67398836
0.09890648 0.78525615 0.17588349
0.92759694 0.78193856 0.84503192
0.48600559 0.32693649 0.34562777
0.55310492 0.35969785 0.70407329
0.43786205 0.71153874 0.17693488
0.50956709 0.68823478 0.86718304
0.15621800 0.42382270 0.22876195
0.22111807 0.38089141 0.67472895
0.21852004 0.99405463 0.13880452
0.25037259 0.88955217 0.73367582
0.64307148 0.49039320 0.22649328
0.87527756 0.44317725 0.75395960
0.64673042 0.98691118 0.31860158
0.84181744 0.06709836 0.70853804
0.96909999 0.24255328 0.36294681
0.11546249 0.24965918 0.86456693
0.98052897 0.67279121 0.14643966
0.91890968 0.72793149 0.65585543
0.61873982 0.27829919 0.21468991
0.41633644 0.15435239 0.74474848
0.41684271 0.76746792 0.31906586
0.47722610 0.65641103 0.68974044
0.90927072 0.47400374 0.45124399
0.09718929 0.50314763 0.08128498
0.89019731 0.01518680 0.52702777
0.95211054 0.98109535 0.90776845
0.48076037 0.40904213 0.49460221
0.45568337 0.39030773 0.96724425
0.40850085 0.07848535 0.50915980
0.57548937 0.99824575 0.11739712
0.06416248 0.16389647 0.26109152
0.92045688 0.23449041 0.68096097
0.90936625 0.76079740 0.32622776
0.94322334 0.66094858 0.80248386
0.50686118 0.34485933 0.15542799
0.47043879 0.21793323 0.63928539
0.58280618 0.77945927 0.34734168
0.51492397 0.83961855 0.67691295
0.15720679 0.23072085 0.40940382
0.34646403 0.19553275 0.01347076
0.35377635 0.70303378 0.54646938
0.25019148 0.84138018 0.07248456
0.71831248 0.13180596 0.47900535
0.81398790 0.34456788 0.95370448
0.83497038 0.65008005 0.50627826
0.79104684 0.71955491 0.10110024
0.91032254 0.15319461 0.23244369
0.00751530 0.13584950 0.81209539
0.05322004 0.80644599 0.33392884
0.02113806 0.86698446 0.74901738
0.52958905 0.15095649 0.28128888
0.53872376 0.24381491 0.85392873
0.56215324 0.65481943 0.27066781
0.38680204 0.75188003 0.77596332
0.44405981 0.92727324 0.57516118
0.57990016 0.95985189 0.94752848
0.43893237 0.49307978 0.59901829
0.46756753 0.49724597 0.10735990
0.02244506 0.90781260 0.56798585
0.10145094 0.92481341 0.00089959
0.11605965 0.49992287 0.56915206
0.91003812 0.46161986 0.95323797
0.41074659 0.04418311 0.08847421
0.45059795 0.92539869 0.40233818
0.38868263 0.51722802 0.95472147
0.61524557 0.47939868 0.55343683
0.05012403 0.99898191 0.10709424
0.97550765 0.92316518 0.40619160
0.89843421 0.51232814 0.09819087
0.03412376 0.39491255 0.53317480
0.50530575 0.88618845 0.06352970
0.59960452 0.95443741 0.51143609
0.60131456 0.42713511 0.02840058
0.49801777 0.61388214 0.50107535
0.94302847 0.91183382 0.02468387
0.10658239 0.02313112 0.48496886
0.00271939 0.60745927 0.98091929
0.06930660 0.50995411 0.39508458
0.25694366 0.91335559 0.33550524
0.14597596 0.99810782 0.81697247
0.32811039 0.41486073 0.27492476
0.16215458 0.54969101 0.76363812
0.75371053 0.08497098 0.32065638
0.84374103 0.88072155 0.73974955
0.77283059 0.59125265 0.19516136
0.78181145 0.49290859 0.85153001
0.15686433 0.90961391 0.23750673
0.15846248 0.98853741 0.67294240
0.22973987 0.52681755 0.35705854
0.30931024 0.58840361 0.76991504
0.85180988 0.98481846 0.18738673
0.70815424 0.07596395 0.73361267
0.74372413 0.40853599 0.31768035
0.78272075 0.51901549 0.63335023
0.22674257 0.17249686 0.94731448
0.18852604 0.15419036 0.50556072
0.21530975 0.67142481 0.90301858
0.22746748 0.71819991 0.38774341
0.77893772 0.13881676 0.04447389
0.73631013 0.35542040 0.52682577
0.80045030 0.67148326 0.96690896
0.74514074 0.75832184 0.39771815
0.15718801 0.31600877 0.04004363
0.27835111 0.36314514 0.49576868
0.25121172 0.82806358 0.91144460
0.31477229 0.84842444 0.47387341
0.82305775 0.25191216 0.07908192
0.64663870 0.25189311 0.58591327
0.65500730 0.65273414 0.02794590
0.67182774 0.82217198 0.51100337
0.37995367 0.22972249 0.26676619
0.39353115 0.28568706 0.78394222
0.62672785 0.78891880 0.21491120
0.49315984 0.84372096 0.85196622
0.98267442 0.20126194 0.13468289
0.06188446 0.35669109 0.75625427
0.92383476 0.81778121 0.19174869
0.07005786 0.75462484 0.64286123
0.08620009 0.09360454 0.97233745
0.99334918 0.07740051 0.39997670
0.05665937 0.48280168 0.91358442
0.99648575 0.60843979 0.47995141
0.39982893 0.94560404 0.98136085
0.52865363 0.05911751 0.58924262
0.53134758 0.59912715 0.97704559
0.56916153 0.52517712 0.38713443
0.16777880 0.05911468 0.27831313
0.32464202 0.04002789 0.67432589
0.28610795 0.51542022 0.13158735
0.24088629 0.44204395 0.85304623
0.79528860 0.93329785 0.34252694
0.78898373 0.97341124 0.85523210
0.75558920 0.58394995 0.34042721
0.81951782 0.60321700 0.74246817
0.06842584 0.31954360 0.22268879
0.96407597 0.30621195 0.84848992
0.04819090 0.65294032 0.28570642
0.09242386 0.71385456 0.79409179
0.46564382 0.21054961 0.13720881
0.57316830 0.16829789 0.75082897
0.49554664 0.87155391 0.22981187
0.60942077 0.72265316 0.73777682
0.28234413 0.35619175 0.97131827
0.14674490 0.28942829 0.51763745
0.35360575 0.76199682 0.95903349
0.16218509 0.83231430 0.51395113
0.66364771 0.24109013 0.05347197
0.84178108 0.20829340 0.55742197
0.64482185 0.80843409 0.05341452
0.67257048 0.64352432 0.47697007
0.22880053 0.61448138 0.24947821
0.37579201 0.45081208 0.77369125
0.30307680 0.07801872 0.28137548
0.22253710 0.10694088 0.74411692
0.76120081 0.40826916 0.16042948
0.74719334 0.38290381 0.72101203
0.71763477 0.90382492 0.20301089
0.66333243 0.91006471 0.74792032
0.29503696 0.32413576 0.10785832
0.35196455 0.27076325 0.43865327
0.12477551 0.73529038 0.98237084
0.24275444 0.71644379 0.60319786
0.69402017 0.24432448 0.88826262
0.82721706 0.26447184 0.40435822
0.79562868 0.85398616 0.00464569
0.85140474 0.79507578 0.48852047
0.29154186 0.22729442 0.58772698
0.23803319 0.17384516 0.10430468
0.16335105 0.66374553 0.49259535
0.27528850 0.68193885 0.09767017
0.65890821 0.24286093 0.41180912
0.82618420 0.17509144 0.89824295
0.76799949 0.70644518 0.61565793
0.66434146 0.76298364 0.91279891
0.10944965 0.11901662 0.37752959
0.14776515 0.13278200 0.86564911
0.14989307 0.63221776 0.36784150
0.11221686 0.64201448 0.88177655
0.61802691 0.13202746 0.37129533
0.59739818 0.16327910 0.87871046
0.62663596 0.65872442 0.37395035
0.60168415 0.62634351 0.90611672
0.38131568 0.39736872 0.40534569
0.37336321 0.38306142 0.87481340
0.36433837 0.86370994 0.35737042
0.38521557 0.85308020 0.88563725
0.86839342 0.38597454 0.35785578
0.86357409 0.39811049 0.86717170
0.87783272 0.85039757 0.38259452
0.87432513 0.89166979 0.87220161
0.36183360 0.14212643 0.13869340
0.38667412 0.12887022 0.62965817
0.36016948 0.61881537 0.14335430
0.35896205 0.62667599 0.64008312
0.86934813 0.13754774 0.10944813
0.89476601 0.12261383 0.62141013
0.86550623 0.62735842 0.13476530
0.86956608 0.63078581 0.63084003
0.11788778 0.37781398 0.12612527
0.12110382 0.38526778 0.60287240
0.13298081 0.90880049 0.12286546
0.10158568 0.85727105 0.63606236
0.62265511 0.36125518 0.13540098
0.64625800 0.37726497 0.60840355
0.59878506 0.88578961 0.12974319
0.62608996 0.87738021 0.60955130
0.06935421 0.44206803 0.29751428
0.08414060 0.46186921 0.81071710
0.06457533 0.93204166 0.30654886
0.03921211 0.95329699 0.82528550
0.56367508 0.45349945 0.29550812
0.58131517 0.45107807 0.78839655
0.53876821 0.94304666 0.31024063
0.56752327 0.93260694 0.82251369
0.43838794 0.07260014 0.31349799
0.44634362 0.05916591 0.81899776
0.45819853 0.58796504 0.31131330
0.44618870 0.54967666 0.79057700
0.93900399 0.04749213 0.30305730
0.91450471 0.05264618 0.79229272
0.97570856 0.56164260 0.32346503
0.94144202 0.54224788 0.80616759
0.42027389 0.45251421 0.21273674
0.45724973 0.42386940 0.67928573
0.42762585 0.95940465 0.18719786
0.44788925 0.93326238 0.70269330
0.95603434 0.44654591 0.18994379
0.96875803 0.41790297 0.70347807
0.95408636 0.93858095 0.18376780
0.95235996 0.93008239 0.67857161
0.06355732 0.05383814 0.20564347
0.05613346 0.07194866 0.71121713
0.06560180 0.57262219 0.19218334
0.06707790 0.55087010 0.68516452
0.55764302 0.06426410 0.20759869
0.56481602 0.04460350 0.70237938
0.53897538 0.55871026 0.17560978
0.54203678 0.55799686 0.66095929
0.30829463 0.05816574 0.45617448
0.32775545 0.06414154 0.93768878
0.30950049 0.56574713 0.44196671
0.27667823 0.55204884 0.92672125
0.79797017 0.05026535 0.42826067
0.80091401 0.06201149 0.94972998
0.83134388 0.56248235 0.42853426
0.81827987 0.56286216 0.96517729
0.31589922 0.44126327 0.04189580
0.29961022 0.45427606 0.57337084
0.30606458 0.95187907 0.05201725
0.30818855 0.93177914 0.56889535
0.82402579 0.42992550 0.05266318
0.83179407 0.44402378 0.54653803
0.82794308 0.95279923 0.06169222
0.80388700 0.93326708 0.53678665
0.17915635 0.46245751 0.45286781
0.18035786 0.42943227 0.95423829
0.20170759 0.93611351 0.44918542
0.19959740 0.94982992 0.93088799
0.69704254 0.43672531 0.43476927
0.69494952 0.45113232 0.95594528
0.68293121 0.92839162 0.42061258
0.71686248 0.92907030 0.95374079
0.19899538 0.07806847 0.04024775
0.19567631 0.05096374 0.57009180
0.19707210 0.55217321 0.07019760
0.19665232 0.57710325 0.56801692
0.68501704 0.04653077 0.05730166
0.68624304 0.04167309 0.54254417
0.70668751 0.54717078 0.08944711
0.70975536 0.55392493 0.54839127
0.42897711 0.30464914 0.06555781
0.41612369 0.29361618 0.55149435
0.42564947 0.79715555 0.06031507
0.42939347 0.80800178 0.57540318
0.93554349 0.28884977 0.05282146
0.95218284 0.30751508 0.57349679
0.92579458 0.80798597 0.05979041
0.93448105 0.80987041 0.55521897
0.04210925 0.30424066 0.43264972
0.05871923 0.31147212 0.94748392
0.05984989 0.82063907 0.45433461
0.05109553 0.82138685 0.94677396
0.55400087 0.31418023 0.45182915
0.56089930 0.31747412 0.96052381
0.55444834 0.82969035 0.45709103
0.55954879 0.80959988 0.96209176
0.43799631 0.19295408 0.42306977
0.43823478 0.20391274 0.93767473
0.43056691 0.71104443 0.44936281
0.43814061 0.68218691 0.95737650
0.93050242 0.19004432 0.46260567
0.95125306 0.18034933 0.92701145
0.94213756 0.69435372 0.43147710
0.93134889 0.71026647 0.93203488
0.06010018 0.18651380 0.04448378
0.07669303 0.19475382 0.54546989
0.04751054 0.69187321 0.04619316
0.05401272 0.68542287 0.54961382
0.55005701 0.18996169 0.05816774
0.54531948 0.17840078 0.55182635
0.55434722 0.69648403 0.08374587
0.55415817 0.69623938 0.56209793
0.29960644 0.31145253 0.22595903
0.31843601 0.31644436 0.68728465
0.30809186 0.81521666 0.18345553
0.28757635 0.80072292 0.68725017
0.82322197 0.31111619 0.19107753
0.81977334 0.29511440 0.68419259
0.80905666 0.80098750 0.17981529
0.80958088 0.78773250 0.68498081
0.28512006 0.19628065 0.33510039
0.30546274 0.18986059 0.80316034
0.30979341 0.69441994 0.29678215
0.29151064 0.69644657 0.81751222
0.81314540 0.18946325 0.30825222
0.78375858 0.16084686 0.78651699
0.80538298 0.69384687 0.31427738
0.82079352 0.68717726 0.82345124
0.19095305 0.16859064 0.20992060
0.20495042 0.19350730 0.66908003
0.19042178 0.70632222 0.17937241
0.17325703 0.69473500 0.71298811
0.71018131 0.19691270 0.16301009
0.68872423 0.17276375 0.66967609
0.68591023 0.69057373 0.21205010
0.71645944 0.65995063 0.70654454
0.16289958 0.30237764 0.29611678
0.18590953 0.31373131 0.77233428
0.20083954 0.80975893 0.31023422
0.18685466 0.81524255 0.81386298
0.69732636 0.30034967 0.29636627
0.69255962 0.30208154 0.78542655
0.70523282 0.82236841 0.30984206
0.68084008 0.78613581 0.80304713
0.01128173 0.00549842 0.00400594
0.99537864 0.00373216 0.49476188
0.99751182 0.49780591 0.01214629
0.01620703 0.50323114 0.50004447
0.50323049 0.00438719 0.02154247
0.48064093 0.99846087 0.49317418
0.50146738 0.49035335 0.99578444
0.51815303 0.50397445 0.49454447
0.97698877 0.24345338 0.23514896
0.01600264 0.25540413 0.76264948
0.00420179 0.76230781 0.23437950
0.98998871 0.75236431 0.74974113
0.49628737 0.26709686 0.24654813
0.50071706 0.24642950 0.73695962
0.51197379 0.76236677 0.25346664
0.50732084 0.75095471 0.76634454
0.24872125 0.98631375 0.25233549
0.24436657 0.99805653 0.74373752
0.25241783 0.49821485 0.24447637
0.25850795 0.49734184 0.74386933
0.73681473 0.99803566 0.24705910
0.76348142 0.97569451 0.73410451
0.75281356 0.49986414 0.25504415
0.75796894 0.49328372 0.74045829
0.24684014 0.25927030 0.01650704
0.24605666 0.25468615 0.48857623
0.24436893 0.74723319 0.99696748
0.24276197 0.74624977 0.49856151
0.77028415 0.24444686 0.97791539
0.74925188 0.24098639 0.49982012
0.72790402 0.74901182 0.00451279
0.74826224 0.73438538 0.50392166
0.00403327 0.99019773 0.25601261
0.98549175 0.99926872 0.74725864
0.01328855 0.51136548 0.24862017
0.01371619 0.49584109 0.74803937
0.48462585 0.00958982 0.25228194
0.50673662 0.99682782 0.76565033
0.49143048 0.50811569 0.25105678
0.50633369 0.49439535 0.73226353
0.25401959 0.01269373 0.98892527
0.25818056 0.98944295 0.51595513
0.23796043 0.49949914 0.99816298
0.24823183 0.50960107 0.50360395
0.75535026 0.00013313 0.01044197
0.74206628 0.98860011 0.47850226
0.75357101 0.50384423 0.01527365
0.76488821 0.49448890 0.48722059
0.99735954 0.24290565 0.99197230
0.00110788 0.24840238 0.50769479
0.98439734 0.76026622 0.99640559
0.99642112 0.75192280 0.49290676
0.49527859 0.25346865 0.00301933
0.48307200 0.24824684 0.49192840
0.49764534 0.74069203 0.01432484
0.49634284 0.76136846 0.50664649
0.23545472 0.24275197 0.26218243
0.25542654 0.25446315 0.73565188
0.25475076 0.75779496 0.23835616
0.23537128 0.75315512 0.75697891
0.75956628 0.24982644 0.23981570
0.74610231 0.23442972 0.73041727
0.75361687 0.75197524 0.25129236
0.75971793 0.73171206 0.76110030
Direct configuration=      3
0.91397576 0.06843326 0.03427420
0.99545818 0.08446798 0.59660693
0.01655561 0.37883906 0.03518845
0.97051271 0.57156464 0.58552464
0.51882301 0.09428333 0.93401199
0.55154823 0.10056461 0.46562360
0.55276149 0.53428466 0.90522618
0.38626371 0.50114742 0.39681930
0.34798363 0.59328575 0.25223826
0.27022043 0.55626481 0.64347099
0.33645247 0.90978797 0.23633111
0.35063655 0.00999677 0.79256551
0.85600216 0.53073334 0.25944319
0.67005864 0.51008442 0.70130853
0.67900653 0.07390068 0.18702909
0.72014495 0.94073874 0.62536559
0.90656122 0.34500468 0.26422906
0.08726759 0.25447433 0.66945749
0.08005524 0.76090175 0.15243166
0.92496272 0.79370453 0.83141369
0.54033603 0.32893071 0.30784543
0.57023177 0.33668454 0.69802445
0.46108004 0.72411615 0.16629039
0.51522089 0.65302267 0.84248439
0.17517633 0.41049174 0.23828820
0.23895109 0.39502121 0.67537612
0.21834621 0.99652783 0.14477670
0.25742062 0.89146211 0.71687162
0.64393755 0.46997876 0.20137423
0.87521844 0.45527972 0.79357483
0.64651359 0.99282689 0.32554802
0.82850897 0.07700675 0.71647362
0.98925737 0.26556277 0.36877100
0.10873654 0.25221595 0.84646518
0.95464684 0.64975330 0.17908649
0.92641713 0.75011256 0.66134326
0.61572921 0.24435938 0.20059334
0.41903120 0.15564512 0.76979576
0.44496851 0.79373541 0.35331085
0.48202916 0.64357349 0.69244615
0.89438674 0.46339081 0.45230858
0.09997369 0.50350446 0.08487646
0.89072350 0.01557131 0.52602196
0.94451754 0.97839362 0.89812471
0.47246475 0.40606847 0.47583860
0.45539003 0.38954041 0.97039481
0.40727025 0.08105408 0.51570100
0.58283735 0.00223403 0.08443024
0.08316366 0.19065183 0.25445015
0.92890112 0.23629520 0.67496537
0.91601627 0.74945691 0.33060271
0.92739908 0.67179029 0.75970586
0.48452122 0.35176588 0.17100475
0.43865179 0.24841498 0.63867906
0.59045644 0.77116351 0.33693959
0.50315654 0.82726990 0.67784713
0.15485577 0.23841269 0.41747479
0.36567760 0.20942240 0.04053412
0.36812786 0.72136991 0.52550093
0.24560119 0.83790826 0.08022488
0.69672506 0.13654729 0.49244753
0.77460720 0.36396502 0.94699998
0.82674172 0.63980943 0.49853680
0.79033164 0.73798926 0.10313598
0.92288179 0.14983107 0.26113613
0.99770387 0.13002747 0.80907440
0.07599527 0.80144506 0.30526143
0.03865688 0.86294082 0.73127192
0.51843691 0.16894147 0.31276042
0.53291923 0.26113137 0.85013921