Li192 P32 S160 Cl32
1.0
20.312311 0.000000 0.000000
0.000000 20.312311 0.000000
0.000000 0.000000 20.312311
Li Cl S P
192 32 160 32
Direct configuration=      1
0.94268124 0.09786531 0.02236391
0.99441267 0.08344034 0.59356401
0.00195631 0.39993472 0.08290354
0.95440293 0.52851013 0.60725212
0.54148842 0.10962510 0.97682458
0.51654096 0.08348132 0.41752424
0.57626852 0.50370745 0.90126061
0.40786793 0.48755786 0.41922426
0.33661165 0.59626670 0.25325671
0.28188001 0.53560290 0.63392028
0.33712032 0.91448505 0.24419622
0.32627655 0.97747942 0.82288143
0.85956733 0.48263341 0.27701277
0.66137384 0.54936361 0.73398962
0.69337598 0.07587185 0.19276543
0.73623176 0.99705635 0.64320954
0.91467835 0.33501293 0.26068956
0.08056892 0.20021747 0.68018367
0.08671163 0.77452970 0.16836124
0.91448465 0.77375938 0.83672964
0.48260138 0.32817468 0.33339613
0.55357102 0.34928527 0.72212174
0.41489988 0.73449466 0.16778960
0.51012385 0.66479694 0.83000034
0.17535728 0.42681962 0.22797809
0.22552989 0.39890187 0.69828337
0.23622281 0.00341347 0.13852102
0.22086233 0.88614943 0.71262077
0.63386114 0.47068217 0.22639211
0.86325251 0.43161093 0.77316019
0.65707740 0.01191002 0.33386887
0.84150853 0.07899892 0.73691004
0.01621492 0.23689249 0.36273804
0.10703699 0.24794952 0.83722859
0.97169809 0.66174241 0.17291400
0.91314879 0.73487910 0.67645440
0.61340387 0.28378155 0.22385313
0.41586958 0.15229146 0.74846243
0.41281726 0.76991300 0.32786986
0.48257147 0.67949913 0.65746911
0.89977311 0.47368588 0.44549990
0.09343344 0.50186173 0.08701721
0.87869929 0.02584566 0.53530685
0.97105897 0.96023604 0.89539666
0.50438146 0.38619224 0.50858925
0.47018936 0.38458642 0.96528096
0.40313490 0.08300568 0.51339357
0.58373210 0.99878024 0.09743018
0.07784166 0.16513562 0.25327900
0.92360167 0.23684152 0.68520597
0.91147234 0.75842217 0.33418688
0.00147932 0.65294214 0.82997873
0.49763985 0.34415138 0.16252594
0.47232611 0.22024258 0.63733713
0.57965433 0.76205349 0.34103273
0.50653949 0.83933569 0.67053794
0.16641973 0.25333693 0.40299615
0.36143461 0.20607396 0.03158616
0.33627909 0.66877742 0.49381285
0.23897155 0.84270353 0.07791989
0.70688021 0.13328282 0.48345894
0.78190821 0.35897211 0.97062525
0.83811742 0.66552851 0.47587995
0.81496098 0.72855187 0.08818693
0.91214662 0.16529941 0.24278865
0.01412022 0.14336127 0.80918855
0.06676560 0.81334152 0.32013596
0.03608962 0.85466558 0.72411102
0.53890576 0.15754091 0.29302932
0.52220678 0.22502146 0.86008665
0.52297641 0.63787692 0.28115533
0.38420202 0.78087923 0.77377088
0.43278979 0.93444689 0.56721386
0.58752372 0.97327716 0.92328853
0.42618223 0.51335074 0.58589026
0.45913619 0.52454794 0.10565027
0.00452485 0.91155510 0.58253225
0.09262680 0.91619567 0.00462281
0.09918764 0.49372193 0.58084880
0.90110307 0.46897452 0.95279118
0.41752199 0.02234690 0.08337533
0.47001018 0.92550583 0.40296388
0.39371181 0.50038326 0.94940957
0.59017907 0.50360909 0.57439722
0.04076457 0.98119783 0.11611354
0.97061033 0.91675616 0.42320838
0.91531414 0.52184524 0.09382839
0.01370254 0.38491618 0.54326831
0.51763986 0.88878672 0.03712628
0.58889650 0.93699141 0.49937501
0.60508026 0.45969469 0.04669949
0.51123053 0.61736240 0.46709510
0.91768119 0.93369417 0.04096098
0.10415111 0.98694979 0.49255747
0.02184905 0.61056085 0.98264040
0.07587360 0.48878488 0.41007340
0.27885647 0.96619991 0.36360266
0.16187006 0.00355892 0.83130317
0.32640995 0.41551854 0.26854379
0.16058007 0.55311334 0.74240638
0.81023089 0.06479333 0.32482099
0.84072563 0.90810386 0.75041150
0.76372921 0.58243584 0.16845346
0.74331032 0.49007929 0.85478031
0.15231333 0.94811351 0.25395981
0.15429586 0.99930752 0.66348972
0.22136317 0.53032640 0.35700223
0.33868782 0.59774557 0.74822494
0.83988147 0.00366725 0.18012459
0.70219988 0.09475525 0.78369561
0.75014093 0.41619059 0.33657177
0.78528234 0.52076312 0.63082906
0.24592790 0.16502552 0.91647708
0.22410314 0.13872012 0.48406874
0.23404700 0.66691959 0.91591875
0.26254066 0.78823760 0.39116958
0.74526278 0.13531153 0.99850572
0.72085289 0.36205185 0.52240175
0.81118247 0.67700254 0.93478342
0.75770467 0.77374860 0.39758623
0.15729982 0.32754855 0.01607109
0.28232683 0.36468123 0.46949442
0.25195746 0.83645569 0.90513861
0.32038450 0.82882977 0.53840245
0.83286126 0.23893086 0.08603488
0.65720398 0.25021624 0.58796630
0.66592857 0.65458775 0.01147561
0.72334806 0.81907891 0.59614489
0.38830503 0.23327619 0.22261366
0.39653447 0.29779814 0.78543800
0.58813079 0.73826816 0.17111411
0.49762072 0.83213374 0.84315975
0.98227299 0.21965283 0.13462154
0.05544394 0.35864619 0.72144555
0.92765446 0.82147114 0.19291606
0.06715876 0.69394698 0.68075453
0.08784374 0.08070615 0.97522872
0.99815390 0.08278515 0.41931772
0.06556566 0.45278691 0.92563499
0.02589899 0.60586241 0.47679157
0.42357659 0.99331188 0.92532764
0.53842228 0.06237037 0.58043680
0.52236048 0.60663165 0.97958308
0.57903614 0.50500451 0.40523441
0.20699889 0.10749622 0.28436648
0.33604861 0.01669122 0.67275133
0.28979426 0.52603537 0.13716045
0.24004623 0.47484398 0.84904063
0.76945895 0.90855462 0.33287011
0.78418247 0.96993614 0.86875273
0.73096156 0.59206812 0.31849629
0.84093318 0.58662364 0.74958021
0.07793252 0.32757830 0.23015213
0.96672344 0.29712272 0.85412755
0.02290744 0.65253509 0.32046918
0.08228040 0.75997545 0.84179756
0.49930674 0.17003894 0.15564121
0.58219686 0.16845250 0.74867183
0.52212756 0.86498189 0.22114768
0.61233847 0.76625470 0.72723057
0.27197166 0.32682354 0.90482688
0.14893711 0.28130738 0.54868896
0.36103990 0.77440197 0.97017473
0.15817014 0.82353231 0.52533607
0.67046019 0.26779068 0.07601142
0.82265947 0.22439918 0.57832699
0.66563025 0.82990963 0.02661120
0.65952082 0.67426744 0.48915149
0.16976287 0.59081245 0.22716721
0.37145935 0.45565051 0.77150983
0.34622744 0.08240728 0.23809021
0.23252255 0.11309239 0.75987878
0.75403610 0.41243789 0.16350847
0.72113970 0.38539580 0.70738146
0.72191314 0.89876244 0.18802653
0.66341796 0.91567970 0.75051195
0.30291397 0.33360297 0.06745558
0.33839846 0.24795893 0.40960192
0.13048638 0.73864060 0.98785795
0.26039526 0.70317265 0.61224186
0.67119903 0.24422982 0.90406378
0.82536857 0.25872009 0.41526117
0.80580610 0.83808060 0.97070998
0.84045038 0.82774817 0.50278573
0.31582460 0.23668077 0.58897119
0.19599521 0.18504665 0.06922688
0.16964930 0.66285781 0.48065797
0.26618165 0.68118846 0.08589539
0.65759226 0.24536584 0.40796125
0.83384011 0.24024784 0.90657617
0.76431040 0.67092670 0.60256257
0.66291010 0.74047009 0.90436313
0.11708694 0.14991309 0.36536791
0.13602186 0.12762475 0.86527065
0.11551541 0.60560725 0.38632104
0.10904189 0.65449788 0.89678665
0.62171491 0.12448679 0.37705867
0.61456014 0.14121893 0.86832786
0.60577589 0.62936097 0.38236338
0.61138621 0.62492427 0.89812465
0.37117222 0.37098607 0.37635968
0.37462514 0.38484553 0.87154175
0.36579157 0.87876697 0.35813255
0.37264217 0.86714064 0.87427291
0.86405098 0.38662117 0.35943920
0.87112329 0.36923562 0.88071822
0.86374074 0.85643880 0.38864384
0.87088093 0.88211856 0.87359679
0.38682284 0.13460390 0.13274347
0.38218717 0.12940281 0.62996755
0.36361062 0.62381406 0.13769582
0.36656040 0.62134384 0.62513200
0.88951375 0.13750599 0.12558586
0.88173938 0.12133227 0.62772779
0.86794040 0.62511384 0.12665619
0.86671837 0.61467356 0.63322305
0.11526307 0.38417429 0.12265841
0.12330852 0.37935327 0.62263175
0.12679890 0.88617066 0.11800070
0.11804974 0.88556294 0.63052854
0.62785510 0.37529273 0.13581246
0.63804214 0.36911120 0.61799653
0.61057547 0.87651943 0.12556116
0.62505550 0.86095103 0.64930928
0.07244169 0.43761567 0.29475994
0.08331168 0.45765856 0.80044835
0.04671158 0.93892946 0.32659872
0.05844405 0.94134272 0.80879795
0.54895499 0.43357897 0.30733935
0.58481931 0.46031004 0.78770166
0.55359265 0.94707358 0.30751892
0.55516967 0.93509759 0.81218150
0.44730636 0.07303184 0.30879474
0.43314001 0.04825590 0.81345981
0.43700203 0.55502569 0.31566761
0.44862665 0.55633946 0.80217810
0.94044932 0.06345911 0.30951571
0.93720950 0.05044755 0.81104522
0.95335370 0.55041922 0.31522477
0.94419892 0.54789244 0.81258783
0.42660821 0.44072849 0.19425876
0.45795973 0.43861268 0.68647092
0.44360694 0.95650956 0.18719769
0.43776379 0.93832967 0.69456621
0.94332052 0.44355488 0.19104427
0.95689025 0.43399196 0.69511886
0.94702927 0.94652925 0.18991325
0.94653003 0.93777866 0.68954425
0.07390211 0.04791614 0.20973919
0.05634755 0.06449399 0.69767866
0.05569105 0.56612200 0.18784565
0.05142536 0.56505940 0.68145114
0.56414847 0.07074684 0.19586372
0.55774026 0.05631085 0.70164871
0.54639363 0.55152629 0.19318693
0.55443962 0.57352379 0.67388999
0.30371615 0.05197765 0.44861385
0.31161795 0.05614771 0.92870427
0.30737694 0.56604287 0.43447282
0.28948679 0.55569654 0.92285176
0.79733039 0.05727751 0.44918724
0.81573085 0.04551935 0.96243962
0.80368889 0.56137969 0.42241363
0.80609926 0.55254636 0.93670726
0.32376628 0.45291637 0.04489085
0.31417621 0.45125762 0.55343591
0.30736944 0.95051004 0.05561182
0.30846634 0.94344870 0.57778916
0.81641400 0.44185963 0.05487627
0.81147910 0.44732581 0.53980446
0.80041843 0.93171212 0.08301528
0.79540774 0.93295877 0.55670134
0.19523544 0.44647042 0.44142532
0.18932265 0.42954608 0.94979929
0.20110131 0.92455996 0.45296614
0.19254425 0.94144685 0.93483410
0.68391954 0.44716349 0.43840950
0.68886023 0.43937772 0.95087399
0.68944875 0.93049316 0.42637639
0.70165085 0.92885297 0.95465311
0.18917402 0.06338495 0.04364425
0.18298171 0.05121371 0.55681172
0.19737846 0.55897490 0.05953203
0.19565010 0.56708389 0.55723676
0.68806457 0.05470935 0.06513808
0.67078333 0.03626971 0.55100731
0.69375874 0.55258437 0.06780702
0.69746813 0.56610266 0.55340220
0.44293334 0.30676946 0.05772612
0.43385131 0.29664511 0.55161061
0.44092589 0.80110727 0.06022746
0.43695595 0.81113920 0.56849620
0.94249542 0.29949471 0.05214921
0.93879022 0.29283127 0.57220644
0.91288348 0.81099743 0.05212876
0.94241083 0.80118798 0.56631009
0.05756410 0.30588543 0.45915331
0.06122284 0.31051441 0.93672224
0.05526371 0.82378521 0.44895186
0.04403131 0.81849884 0.94690569
0.54949757 0.30066432 0.43647356
0.56070237 0.30781639 0.94167534
0.54665009 0.82755672 0.44211404
0.56475734 0.81121710 0.95167367
0.43789470 0.17690560 0.43741406
0.45022697 0.18477497 0.94953018
0.43479142 0.70788905 0.43569869
0.44860326 0.69325811 0.93852630
0.94126548 0.18903170 0.44511114
0.94731039 0.19152243 0.92606207
0.95120182 0.69407725 0.43605388
0.93695733 0.69404266 0.93760992
0.05825856 0.18287918 0.04569849
0.06383605 0.17980332 0.56003333
0.04022996 0.70375569 0.06539412
0.06762378 0.69447194 0.55115707
0.56986069 0.19554825 0.06113470
0.55527067 0.18449101 0.55499994
0.55844680 0.68539981 0.06284356
0.55141154 0.69874924 0.55000979
0.30392683 0.31327690 0.18899027
0.31792946 0.31492580 0.69078687
0.31029779 0.81231661 0.17785088
0.29736203 0.79372953 0.68858856
0.81603735 0.30897714 0.18974989
0.80776393 0.29188363 0.68576226
0.80187316 0.80188403 0.18721149
0.80922486 0.80170856 0.68880803
0.29970232 0.19443024 0.30188966
0.30963680 0.19918101 0.80848388
0.30256542 0.70676722 0.30508770
0.30506575 0.69463366 0.81764391
0.81293622 0.19228782 0.30800898
0.79583147 0.17667269 0.80783343
0.80606795 0.69437278 0.31737266
0.82187569 0.69320522 0.81100314
0.18300729 0.19168310 0.18996988
0.20314204 0.19929630 0.68182844
0.18842289 0.70329150 0.18181606
0.18621421 0.67391175 0.70398042
0.69549688 0.19969130 0.18496926
0.68857809 0.17613565 0.68712281
0.68992196 0.67842122 0.20571719
0.69661159 0.68142357 0.70199359
0.18454848 0.31743734 0.29842773
0.19758915 0.32033222 0.80075663
0.19167122 0.82577841 0.29536792
0.18541882 0.80990126 0.80445678
0.69671682 0.30849510 0.30667079
0.68804330 0.30374146 0.79578888
0.69074358 0.81269199 0.30369387
0.69649205 0.80494632 0.80959695
0.00587155 0.99865914 0.00396488
0.99004775 0.00110061 0.50561741
0.00047857 0.49723890 0.01192754
0.00460234 0.49519846 0.50588372
0.50831746 0.00028148 0.00576833
0.48961188 0.00116438 0.49535279
0.50271369 0.49410287 0.99559521
0.50107296 0.50203691 0.49519007
0.99566507 0.24781470 0.24768444
0.01623998 0.25123063 0.75950313
0.99877197 0.74861869 0.25107566
0.99980294 0.74709194 0.75830499
0.50141549 0.25507087 0.23958836
0.49373305 0.24482737 0.74934225
0.50252920 0.75169740 0.25037771
0.49750736 0.75345255 0.75283447
0.25782740 0.00492815 0.25292186
0.24194517 0.99893359 0.74478647
0.25282828 0.51111333 0.24693419
0.26649764 0.50150146 0.74150409
0.74882396 0.99584766 0.25551228
0.75650922 0.99293815 0.75639238
0.74656372 0.49557266 0.24741854
0.76611797 0.49245888 0.74211689
0.25443235 0.25430895 0.99791382
0.24854151 0.25275088 0.48897443
0.24678796 0.75628037 0.99433661
0.24870502 0.74704734 0.50267397
0.75433306 0.24883784 0.99346468
0.73784096 0.24649074 0.49691731
0.73968873 0.74334760 0.99586511
0.75675324 0.74234174 0.50940543
0.00044456 0.99883088 0.25966596
0.99929248 0.99909975 0.75027740
0.00772172 0.49935662 0.24800771
0.00815886 0.50213499 0.74930201
0.50109150 0.01150110 0.25035599
0.49678551 0.99590284 0.75376324
0.48862474 0.49439996 0.25346686
0.51051846 0.50798835 0.73753636
0.25131591 0.00321272 0.98991077
0.25067394 0.99198577 0.51018236
0.24802945 0.49969850 0.99603901
0.25270396 0.50817054 0.49688493
0.75135090 0.99148813 0.01797012
0.73798081 0.98802678 0.49259492
0.75109999 0.50056015 0.00380410
0.74908188 0.50689136 0.48735363
0.00272389 0.24678266 0.99044234
0.99891054 0.24011003 0.51090583
0.98314613 0.75871234 0.00122128
0.00333893 0.75430269 0.50087682
0.50660363 0.24908450 0.00334959
0.49383798 0.23860304 0.49443794
0.50413341 0.74668040 0.00356338
0.49284015 0.76334764 0.49824925
0.24132482 0.25483112 0.24337142
0.25510161 0.25810158 0.74504318
0.24789363 0.76181382 0.24000949
0.24132472 0.74150686 0.75487137
0.75626482 0.25098541 0.24788080
0.74499621 0.23811865 0.74481751
0.74816750 0.74563204 0.25234382
0.75599246 0.74484145 0.75409600
Direct configuration=      2
0.92434001 0.09054566 0.02005431
0.99374626 0.08447080 0.59156496
0.02021723 0.38740406 0.03475327
0.95105284 0.52897400 0.61273517
0.53355849 0.10377669 0.95238617
0.57023626 0.08769195 0.47325048
0.58258248 0.50373858 0.90473775
0.40796812 0.49458548 0.41941283
0.34091349 0.59318816 0.24956457
0.28582674 0.53184831 0.63533654
0.34104224 0.91744756 0.24297393
0.32851437 0.97575028 0.81966324
0.86506736 0.48772353 0.28355884
0.65571319 0.53357990 0.73252474
0.68903045 0.07242013 0.18986059
0.72011385 0.98066004 0.64020881
0.91508857 0.33747382 0.25759170
0.07605152 0.19045503 0.68748537
0.09060548 0.76884811 0.16953417
0.95869326 0.80266000 0.85789115
0.48942805 0.32969346 0.33159270
0.55225804 0.34847322 0.72153629
0.41668989 0.73231239 0.16890029
0.50839722 0.66217010 0.83312440
0.19270673 0.41294236 0.24071769
0.22383689 0.39788800 0.70606697
0.22409204 0.98966199 0.13631583
0.21641173 0.88182292 0.71820323
0.63826266 0.47185043 0.22622570
0.86871037 0.44761539 0.77386679
0.65188774 0.99270934 0.33254330
0.83690722 0.07357559 0.72722052
0.99772741 0.25875964 0.36524970
0.10567767 0.24880423 0.84094079
0.97409845 0.66411007 0.16618334
0.91973157 0.74162529 0.67186144
0.61351334 0.27202110 0.22403720
0.41842278 0.14886360 0.75124900
0.41200681 0.77178500 0.33080882
0.48515865 0.67226567 0.65898076
0.89533619 0.46881989 0.45506714
0.09337598 0.49864044 0.09079309
0.88022282 0.03018553 0.53107510
0.96675938 0.97479841 0.89161104
0.47775143 0.38506296 0.48300866
0.48042801 0.38304013 0.96731967
0.40590179 0.08231403 0.48948116
0.57049762 0.03908948 0.08533246
0.09069276 0.17986939 0.26138204
0.92260885 0.23645677 0.68856462
0.90973919 0.75751111 0.33086878
0.94840596 0.66704177 0.80676247
0.50591886 0.34463965 0.16104436
0.46583592 0.22446106 0.63468608
0.57762509 0.75833221 0.34576282
0.51021762 0.83884255 0.66995857
0.15703779 0.24599383 0.40943090
0.36726573 0.22238951 0.02343067
0.34140436 0.66990692 0.49949372
0.24282363 0.83824174 0.07987235
0.72014069 0.13418718 0.47998466
0.79368131 0.35783530 0.96953974
0.83315892 0.66289778 0.48548017
0.79429731 0.71935377 0.10432248
0.91594116 0.15772595 0.24914907
0.00833933 0.15059196 0.82618103
0.06576294 0.81060901 0.32235239
0.03328241 0.86326663 0.72675004
0.50555045 0.15884363 0.30859433
0.52887434 0.23293136 0.85690985
0.52165775 0.63562609 0.27828389
0.38575656 0.77382429 0.76545168
0.43460461 0.92905318 0.56237312
0.58373557 0.95327351 0.93050491
0.43319644 0.51179016 0.58916314
0.45821943 0.52304451 0.10526025
0.00530774 0.91433755 0.57894504
0.08907607 0.91864403 0.00469507
0.09791166 0.49738665 0.58322686
0.91537262 0.48511871 0.93025378
0.40732123 0.02371025 0.07584501
0.45526045 0.96589920 0.39092978
0.39673863 0.49092663 0.95043275
0.59114609 0.48350709 0.57245208
0.03322657 0.99976145 0.11428552
0.97700420 0.92224180 0.41791219
0.91956094 0.51712263 0.08977208
0.01516019 0.38619987 0.55308898
0.51785118 0.89692353 0.05980082
0.58972449 0.93917769 0.51718154
0.60884443 0.45950252 0.04816155
0.51831764 0.61397689 0.47043511
0.92001575 0.92927798 0.03272625
0.10688973 0.00682212 0.48956032
0.02674654 0.61586877 0.98047122
0.05172647 0.48049018 0.40412503
0.27106363 0.94988219 0.36016588
0.16258706 0.00636884 0.83207954
0.33873959 0.42670174 0.27533877
0.15838352 0.55095421 0.73995320
0.75033563 0.09564700 0.33067148
0.84400410 0.90712042 0.75248366
0.76936396 0.57852566 0.16863071
0.74980912 0.48563507 0.85527139
0.16118200 0.91235187 0.23968070
0.15637203 0.99534007 0.66031037
0.22434625 0.53699856 0.35918312
0.34181821 0.59540138 0.74720668
0.84403669 0.00518459 0.19306855
0.69755292 0.08812383 0.77717800
0.75324013 0.41185784 0.33456109
0.78165474 0.52459775 0.62797905
0.24262118 0.16239235 0.92212883
0.22238488 0.13373257 0.46887234
0.24096221 0.66604750 0.91741660
0.22742428 0.72827431 0.38418873
0.74014772 0.13745230 0.00414959
0.72011091 0.36033234 0.52369216
0.81846809 0.67903747 0.94528895
0.75648254 0.78385215 0.39292569
0.14035880 0.27437587 0.03286911
0.26765832 0.36402044 0.47857591
0.25236410 0.83801004 0.90995989
0.32793347 0.82915764 0.49932754
0.82777743 0.23734126 0.08985437
0.65689986 0.24730772 0.58580995
0.66817931 0.64763560 0.00659156
0.64928229 0.79670169 0.53982219
0.38445504 0.25639946 0.23080549
0.39539986 0.29470505 0.78872937
0.59347685 0.74534698 0.18008204
0.49591621 0.82824637 0.84432340
0.97770209 0.21851869 0.13784244
0.05565626 0.35685354 0.72296041
0.93301469 0.82096078 0.18760345
0.07743686 0.73098088 0.66826425
0.08673193 0.08617453 0.97905834
0.99911656 0.08812690 0.41603524
0.08302094 0.48722142 0.91891727
0.00568970 0.60710983 0.48855760
0.41838700 0.97955933 0.92461515
0.49382082 0.06576163 0.60420608
0.52289186 0.60786886 0.98244035
0.58211454 0.50129085 0.40590227
0.15000596 0.04195579 0.29880025
0.33399993 0.00551707 0.66562545
0.28896473 0.52274175 0.13921654
0.24453074 0.48932455 0.85406916
0.79950536 0.95283908 0.35412782
0.78397957 0.97303864 0.86767848
0.73352490 0.58771383 0.32507824
0.80991503 0.59866712 0.74244748
0.07203612 0.33118552 0.22111307
0.96292589 0.30377575 0.85457968
0.03619928 0.64770246 0.30434992
0.09857169 0.72131399 0.81548917
0.48860116 0.17348341 0.15243075
0.58068387 0.16773999 0.74685870
0.51988406 0.86114149 0.22168007
0.61505152 0.74594650 0.73761909
0.26857667 0.33419263 0.91683113
0.14512459 0.27749538 0.55335209
0.36297813 0.77587711 0.97344189
0.16224073 0.82695834 0.52002649
0.66259371 0.27204941 0.06444129
0.82552980 0.22557087 0.57764596
0.64780866 0.79420761 0.04608664
0.66904540 0.65956511 0.48382958
0.17323699 0.59263695 0.23856933
0.36971933 0.45313915 0.77523943
0.31374956 0.08948729 0.25188933
0.24318994 0.10956911 0.75022308
0.75954089 0.41473246 0.16334024
0.72531267 0.38103886 0.70742987
0.71772546 0.89406317 0.20879684
0.66380972 0.90953968 0.75050093
0.26325108 0.34156036 0.07922410
0.34316081 0.24991249 0.42029710
0.13438626 0.73627620 0.98216392
0.25292319 0.70511244 0.61199512
0.67446719 0.24143526 0.90165502
0.82695909 0.26549853 0.41534602
0.79280656 0.84396515 0.99148685
0.83256283 0.83308085 0.50505900
0.29419425 0.23097575 0.59707627
0.25575814 0.16428232 0.08661302
0.16489934 0.65965569 0.48858240
0.26670458 0.67172551 0.08119506
0.66187490 0.24538654 0.40729942
0.82805488 0.21928803 0.90846362
0.77389998 0.71285928 0.61281233
0.66508871 0.74414187 0.90861642
0.11965831 0.13037842 0.37879553
0.12962966 0.12975867 0.87104455
0.14176301 0.63125184 0.36841964
0.12211891 0.64407383 0.90238081
0.63990406 0.12346464 0.38139618
0.61279786 0.14227568 0.86411353
0.61079678 0.62331892 0.38206422
0.61083834 0.62497660 0.89844259
0.38404298 0.37645881 0.38081217
0.37658548 0.38391061 0.87506641
0.37011575 0.88182120 0.36276683
0.37418851 0.86897647 0.87620950
0.86726474 0.38144500 0.36351145
0.87419967 0.38157720 0.87752151
0.86854929 0.86104732 0.38982211
0.87812181 0.89203753 0.87494339
0.37394071 0.13757751 0.11533112
0.38784826 0.12032559 0.63362389
0.36764732 0.61883543 0.13507968
0.37121833 0.61799052 0.62647483
0.88805953 0.13640642 0.12883763
0.88203009 0.12181847 0.62259239
0.87142112 0.62232269 0.12521241
0.86326655 0.61965890 0.62738927
0.11660948 0.37347854 0.11333642
0.12303357 0.37970126 0.62374367
0.13591700 0.88794826 0.12322186
0.11751363 0.87669391 0.63529990
0.62661623 0.37291306 0.13423704
0.63904635 0.36903574 0.61919420
0.60974800 0.86018858 0.13573654
0.62119171 0.87415534 0.62983321
0.07904642 0.43381977 0.29269288
0.08561458 0.45917999 0.79897403
0.06227504 0.94362630 0.31899572
0.05602686 0.94791297 0.80940775
0.55424086 0.43332957 0.30604711
0.58083921 0.45559031 0.79147255
0.54456900 0.94655154 0.30462331
0.55588284 0.92887517 0.81100494
0.42835905 0.06043515 0.30225946
0.43592733 0.04424332 0.81677011
0.43887278 0.55270316 0.31358832
0.44739606 0.55497546 0.80277029
0.93545787 0.05009021 0.31372940
0.93583078 0.05859921 0.80243859
0.96722153 0.54621684 0.32923060
0.94241348 0.54605663 0.81227669
0.43103754 0.43756157 0.19373033
0.45453485 0.43453050 0.68955999
0.44402698 0.95145010 0.17639024
0.43911290 0.93761461 0.69310106
0.94438171 0.44831068 0.19706839
0.95886225 0.43295951 0.69557320
0.95373104 0.94667813 0.18788968
0.94672117 0.94196907 0.68685126
0.06647683 0.06332601 0.20929813
0.06029767 0.06340169 0.69103104
0.05875492 0.56843188 0.19442384
0.04815002 0.56909779 0.68303367
0.55436708 0.07678414 0.19941649
0.55983740 0.05295223 0.70400616
0.54901680 0.55084457 0.19182744
0.55335400 0.56508648 0.67254790
0.30355362 0.04484670 0.43841730
0.31036078 0.05217537 0.92617855
0.30953200 0.56897172 0.43870836
0.30039836 0.55951475 0.93216019
0.80055721 0.05140650 0.43822463
0.81361931 0.05318698 0.96161468
0.80454121 0.55860566 0.42618193
0.80640535 0.55444207 0.93759870
0.32155152 0.44729249 0.04841196
0.31426979 0.44976452 0.55326436
0.30618983 0.94724458 0.05357097
0.30979391 0.93356182 0.56700512
0.81983482 0.44150512 0.05670864
0.80958819 0.44399176 0.54249473
0.80680700 0.93750320 0.08219022
0.79917657 0.94086048 0.55731933
0.19354656 0.45248580 0.44143019
0.19210858 0.43573533 0.94726535
0.19201210 0.92812805 0.45252451
0.18868135 0.94079602 0.93534011
0.68656011 0.44088852 0.43478328
0.69359701 0.43737742 0.95143440
0.69342195 0.92428827 0.42916968
0.70607132 0.93021995 0.95457860
0.19241888 0.06509394 0.04324519
0.19447143 0.05379177 0.55871384
0.19891896 0.55834365 0.06243614
0.19791251 0.56698349 0.56217155
0.68871778 0.05452848 0.06715303
0.67180553 0.04113675 0.54399338
0.69612071 0.55011044 0.06908597
0.69170876 0.55831567 0.55082665
0.45094705 0.30545614 0.05702931
0.42662694 0.28995539 0.54054923
0.44209256 0.80272768 0.06257500
0.43688766 0.80675996 0.56718728
0.93687333 0.29844311 0.05266138
0.93779648 0.29503128 0.57522249
0.91696524 0.81077191 0.05784938
0.94014182 0.80559566 0.56540412
0.05599052 0.30836117 0.46137625
0.05481645 0.30887416 0.94083472
0.05399815 0.82356015 0.44847715
0.04635725 0.81829879 0.94788512
0.55341662 0.30186899 0.43665671
0.57185877 0.30611034 0.94647607
0.56052044 0.82333455 0.45281872
0.56618851 0.81487285 0.95309721
0.44717104 0.17622022 0.42251581
0.45218938 0.19153433 0.94145842
0.44367027 0.70549042 0.43761011
0.45009597 0.69561474 0.94094475
0.93883789 0.19274098 0.44662756
0.94346732 0.18571817 0.92888003
0.94520535 0.69621551 0.43757313
0.94107088 0.69685133 0.93991987
0.05619357 0.18544254 0.04968464
0.06165870 0.18190417 0.56176982
0.04627976 0.70483485 0.06643552
0.06121846 0.69370381 0.55150589
0.56956668 0.18557395 0.05817847
0.55128589 0.18250697 0.55271449
0.56393802 0.69146681 0.06319548
0.55855617 0.69663016 0.55570454
0.29116074 0.32625704 0.19801097
0.31663477 0.31291152 0.69287231
0.31277348 0.81211166 0.18094217
0.29406343 0.79271479 0.68764001
0.81708513 0.31072699 0.19039252
0.80692471 0.28704206 0.68522128
0.80597879 0.80651519 0.19191733
0.81337784 0.79877542 0.69223551
0.30647061 0.20301819 0.30458728
0.30866216 0.19488127 0.80912657
0.31028901 0.70023855 0.30131553
0.30822240 0.69198813 0.81562734
0.81450765 0.19516496 0.30930106
0.79138077 0.16914092 0.80393908
0.80233815 0.69474339 0.31814861
0.82353166 0.69110734 0.81912422
0.19132249 0.18942670 0.18720751
0.20163341 0.19900817 0.68282400
0.19384371 0.69892944 0.17995233
0.17949509 0.67642169 0.71013020
0.70102559 0.19774379 0.18305766
0.68544812 0.17346255 0.68370824
0.69950997 0.68174023 0.18988215
0.70686552 0.67455185 0.70494280
0.16980202 0.30269339 0.30285427
0.19798270 0.31783258 0.80446774
0.19398266 0.81309961 0.30062794
0.18649455 0.80587199 0.81124651
0.69505680 0.30784961 0.30455605
0.68655516 0.29976625 0.79406819
0.68368259 0.80779232 0.29778134
0.69634517 0.80130906 0.80834220
0.00422536 0.00283643 0.00204491
0.99258120 0.00490819 0.50241712
0.00685550 0.50166455 0.00660564
0.00109172 0.49475468 0.51043269
0.50350723 0.99968331 0.00203678
0.49214522 0.00539800 0.50077407
0.50602046 0.49394295 0.99671941
0.50153372 0.49921710 0.49374435
0.99434805 0.24808563 0.25052549
0.01494234 0.25135962 0.76353972
0.00057291 0.74797113 0.24946828
0.00260613 0.75440495 0.75548300
0.49874028 0.25492462 0.23912174
0.49237054 0.24443074 0.74697536
0.50145091 0.74878086 0.25411832
0.49985160 0.74956620 0.75208725
0.24697309 0.99226606 0.25171032
0.24247498 0.99486879 0.74268639
0.25642535 0.51019690 0.25055167
0.26629780 0.50203831 0.74384042
0.74506345 0.00051763 0.26010366
0.75444765 0.98720485 0.75247015
0.75140456 0.49524172 0.25012424
0.76401032 0.49052958 0.73993335
0.25405039 0.25132929 0.00341988
0.24377575 0.24900120 0.49038759
0.25008084 0.75485960 0.99547051
0.24707839 0.74330583 0.50069898
0.75476530 0.24916246 0.99242552
0.74026278 0.24702003 0.49702227
0.73912051 0.73998959 0.00044412
0.75035996 0.74413657 0.50343699
0.00332734 0.00092199 0.25841681
0.99974372 0.00416527 0.74658784
0.01268618 0.49822009 0.25242510
0.00927087 0.50293864 0.74878212
0.49283431 0.00927434 0.24429548
0.49818889 0.99252566 0.75557229
0.49259000 0.49270077 0.25211993
0.50813069 0.50380209 0.73948940
0.25013421 0.00122749 0.98894275
0.25224188 0.98962375 0.50584980
0.25126536 0.50067005 0.99858912
0.25359391 0.50936779 0.49851412
0.75331814 0.99358981 0.01791223
0.74009395 0.98820181 0.49069187
0.75485392 0.49906649 0.00486845
0.74738763 0.50176767 0.48751449
0.99652533 0.24369119 0.99303603
0.99697177 0.24246705 0.51307949
0.98635640 0.76028380 0.00513518
0.99916566 0.75605581 0.49988350
0.51175043 0.24631316 0.00194365
0.49463139 0.23743689 0.48768634
0.50576379 0.75052001 0.00478166
0.49944533 0.76050836 0.50232454
0.23883443 0.25344222 0.24786168
0.25452708 0.25613289 0.74807080
0.25250918 0.75634244 0.23976057
0.24225252 0.74128148 0.75726286
0.75745810 0.25176740 0.24740060
0.74250054 0.23363186 0.74256498
0.74887376 0.74633957 0.24985893
0.76166587 0.74221546 0.75783683
Direct configuration=      3
0.91136591 0.08881671 0.00247001
0.99528863 0.08433799 0.59329179
0.01762792 0.38593220 0.03048253
0.95213065 0.53142355 0.60729194
0.53321423 0.10856619 0.97558596
0.56912663 0.09169248 0.47644921
0.58730445 0.50649042 0.90795331
0.40653378 0.49772049 0.42107543
0.33982794 0.58774860 0.25096361
0.29071442 0.53178280 0.63298000
0.33059415 0.92562662 0.21738872
0.34962581 0.96261703 0.78348512
0.86436606 0.52159206 0.23661866
0.65335812 0.53101522 0.72916559
0.68328908 0.07136288 0.18981871
0.72630203 0.98493284 0.63775085
0.90723615 0.33962413 0.25622487
0.07841053 0.19225320 0.68596973
0.08991396 0.76594565 0.17118660
0.91794261 0.77418802 0.83756635
0.48572788 0.32925243 0.33054488
0.54386872 0.35003511 0.73584498
0.41432106 0.73104644 0.16808546
0.50864245 0.66551019 0.82911212
0.18828990 0.40618981 0.24061338
0.21911165 0.39749988 0.70746034
0.21012777 0.98874924 0.14165091
0.21283665 0.88333349 0.72447098
0.63606977 0.47282378 0.22246177
0.86708202 0.44542588 0.77096790
0.67018814 0.94441183 0.31728831
0.83890239 0.07577352 0.72835763
0.97965301 0.28040334 0.36553241
0.10510214 0.24784077 0.83935960
0.97251955 0.66043210 0.17016127
0.91799302 0.74183834 0.66913087
0.61310756 0.27178820 0.22241273
0.41568286 0.14656086 0.75114034
0.41560905 0.76820436 0.33314471
0.47735091 0.68136495 0.65706350
0.90491151 0.47416406 0.44364647
0.09180977 0.49776647 0.08719861
0.88300325 0.03123837 0.52374607
0.96569235 0.96634611 0.89460293
0.47168616 0.38608789 0.47867654
0.46972970 0.38759089 0.96645453
0.40924369 0.08693498 0.50181075
0.57617317 0.00021353 0.09471175
0.09261675 0.20040373 0.25237027
0.92400984 0.23371003 0.68547361
0.90885232 0.76039010 0.33213675
0.99096058 0.64017547 0.76180681
0.50245073 0.34488988 0.16355600
0.46817269 0.22300097 0.63472589
0.57749361 0.75726530 0.34240257
0.50614681 0.84231127 0.66482731
0.15595092 0.24327362 0.41312194
0.36411231 0.22729883 0.02849913
0.34163537 0.66894870 0.49965944
0.24227019 0.83701605 0.08200127
0.72002091 0.13506816 0.47613932
0.79600133 0.35472153 0.97224192
0.83562629 0.66653574 0.48001816
0.77838670 0.73878760 0.10268925
0.91842483 0.15832039 0.25857545
0.00706683 0.14851265 0.82235600
0.06373561 0.80770751 0.32439195
0.02938002 0.86243107 0.73045806
0.50820241 0.16312665 0.31726314
0.52660610 0.22434802 0.86063104