Li192 P32 S159 Cl33
1.0
20.312311 0.000190 -0.000113
0.000190 20.312339 -0.000033
-0.000113 -0.000033 20.312424
Li Cl S P
192 33 159 32
Direct configuration=      1
0.01416002 0.09213490 0.41125411
0.14368568 0.03562343 0.78995790
0.10462439 0.51417572 0.39177172
0.14507426 0.51115028 0.86224097
0.59092989 0.01838760 0.39944141
0.63193155 0.01373801 0.86375708
0.65644768 0.49743440 0.35443734
0.51310555 0.58306217 0.90815565
0.30239935 0.46775098 0.36367043
0.48615672 0.40269325 0.89210821
0.39722592 0.98891979 0.39676587
0.26944390 0.88812257 0.86166165
0.83155701 0.47664570 0.35337790
0.96264118 0.46358529 0.88952183
0.87904207 0.98257994 0.38430541
0.89598609 0.91240027 0.98553498
0.49689273 0.11204159 0.10128541
0.36850376 0.13482962 0.50888665
0.35253575 0.50216224 0.14214521
0.49124096 0.63121474 0.61672360
0.78590286 0.03888448 0.13040572
0.90156719 0.01835281 0.58927124
0.90026478 0.51064093 0.09524366
0.88405827 0.51194438 0.62444286
0.10840373 0.48377792 0.12589422
0.09414200 0.48880470 0.59161699
0.15751191 0.99412411 0.15304800
0.08876068 0.99202702 0.60132915
0.63662515 0.49052616 0.11871369
0.59631565 0.48860774 0.60500959
0.59221955 0.98613472 0.09598752
0.58595101 0.98435907 0.57962189
0.36319739 0.15549885 0.00419415
0.26106125 0.09758947 0.64750570
0.48279075 0.57850150 0.08324200
0.38515763 0.52087705 0.61385857
0.87676406 0.11693170 0.00631873
0.84800282 0.15923942 0.50785396
0.85548218 0.73986535 0.09979846
0.87795633 0.61801282 0.51987658
0.35134380 0.36110439 0.48825501
0.39514877 0.27223743 0.84859363
0.29643978 0.86290984 0.46069380
0.40725353 0.98184145 0.88913572
0.86882838 0.36754997 0.48467786
0.88314896 0.37275533 -0.00791255
0.84529436 0.85221596 0.48404072
0.84182322 0.77134927 0.92229075
0.09758924 0.37538850 0.02103698
0.14306757 0.36804774 0.50475300
0.10897586 0.91213198 0.01177646
0.11300217 0.87966069 0.50980954
0.70510564 0.36608894 0.03040067
0.60353702 0.39223376 0.50660517
0.60408894 0.87109422 0.00286190
0.64947903 0.85625745 0.51327791
0.14122325 0.13557139 0.48189898
0.12878385 0.10515592 0.98188317
0.08681690 0.60671531 0.48697770
0.04026795 0.61382698 0.95430033
0.64980025 0.15408880 0.47988833
0.70080606 0.13716399 0.97094027
0.51691765 0.58017272 0.39567571
0.64639668 0.69055621 0.97606267
0.04343710 0.36250344 0.21042797
0.02125020 0.34983946 0.65225813
0.01295381 0.89504089 0.11230346
-0.00027646 0.85171034 0.64374098
0.53750162 0.39299824 0.04730798
0.50235861 0.34984145 0.64265317
0.50333963 0.85740878 0.13625902
0.51441252 0.84502843 0.64471953
0.47887844 0.39979590 0.38968335
0.35373868 0.42712852 0.77390437
0.46931198 0.88057730 0.45492703
0.46383922 0.78740781 0.85924029
0.92315138 0.26221580 0.34304065
0.96659459 0.28791415 0.86169824
0.97763676 0.85172048 0.34890117
-0.00971130 0.89063830 0.88159245
0.09356174 0.14080910 0.25751770
0.01809218 0.11089206 0.88048741
-0.00131173 0.64397748 0.35231822
0.13630550 0.74202504 0.88239843
0.51452907 0.14741503 0.33757744
0.53995944 0.11478100 0.94771369
0.65595428 0.59672739 0.25659359
0.58970335 0.66737068 0.76563068
0.41332221 0.23925667 0.15446571
0.48979347 0.14938689 0.64275465
0.47372048 0.64134753 0.21418570
0.36501865 0.64566537 0.50324125
0.95778901 0.03774741 0.11248013
0.99408700 0.11671684 0.59649529
0.89943935 0.61127026 0.00228138
-0.02291630 0.65972290 0.65497723
0.10566886 0.25514696 0.14111755
0.15195488 0.26828857 0.60477932
0.13268544 0.76589527 0.11300954
0.12250239 0.76082628 0.62091283
0.63782830 0.26084069 0.11304157
0.61103293 0.25707680 0.63034783
0.59608209 0.75570824 0.14625505
0.65507924 0.76042336 0.61052321
0.36747976 0.11084735 0.22927808
0.36691773 0.23640907 0.62834478
0.39337876 0.73755827 0.14838012
0.26028844 0.62599156 0.62381285
0.95935486 0.19822489 0.13762153
0.89598693 0.24432966 0.63716977
0.75944661 0.64327781 0.08776789
0.83500807 0.73719280 0.61084374
0.40882449 0.26643069 0.33883682
0.25610652 0.39748996 0.86683746
0.36717435 0.75912841 0.39344138
0.35192074 0.64867663 0.01572682
0.78132832 0.30119451 0.38371964
0.79702485 0.29359533 0.88634464
0.88660841 0.75683650 0.34338698
0.90108310 0.79586482 0.78714800
0.10397289 0.23719662 0.35435968
0.16277227 0.23519945 0.90099284
0.09488696 0.74367058 0.35372618
0.19985758 0.63148765 0.97230339
0.61437728 0.24277721 0.35141236
0.63909299 0.24328824 0.89328004
0.60658384 0.72477543 0.35780695
0.60617449 0.83479692 0.74426946
0.36233809 0.39220282 0.25840177
0.37922899 0.46853871 0.95957728
0.45221713 0.86172821 0.28682737
0.38251898 0.87235657 0.75622197
0.98691640 0.41303483 0.40049957
0.89390893 0.35412788 0.76115910
0.83856221 0.90686595 0.25505317
0.86548313 0.96106463 0.78997078
0.40049977 0.01543767 0.09002814
0.40827103 0.01095551 0.58997213
0.33957443 0.59384298 0.24546223
0.35409208 0.74849295 0.59446614
0.85313058 0.09766363 0.23670502
0.90272455 0.14896726 0.73566002
0.98136168 0.64924191 0.13915177
0.85780251 0.60625156 0.75050824
0.14225804 0.00527658 0.35020526
0.10362175 0.17767078 0.76291135
0.13167890 0.61512116 0.26624809
0.04861426 0.63859773 0.79261279
0.66362093 0.08970235 0.25878522
0.59444103 0.15292061 0.76519594
0.73908088 0.63038585 0.38661437
0.65588532 0.50683617 0.83642213
0.20969786 0.39094357 0.21619741
0.15581842 0.40677868 0.73536026
0.13999852 0.88768509 0.24125879
0.10048576 0.85227983 0.73895487
0.54468053 0.35502294 0.20871498
0.60912375 0.35721867 0.73856536
0.63642440 0.89250862 0.22815751
0.64994971 0.96732030 0.71145181
0.26831383 0.31082244 0.39337827
0.34867167 0.32691482 0.98435454
0.28975876 0.89301583 0.30057865
0.36344771 0.84861787 0.97705577
0.87444052 0.37553893 0.25403320
0.80757838 0.46008511 0.85855945
0.74802832 0.87114690 0.37079198
0.76143218 0.90026720 0.85703227
0.23549474 0.33133279 0.08688361
0.24458061 0.37111530 0.60949005
0.24402820 0.86776815 0.11487040
0.22857375 0.89776909 0.63950219
0.71177243 0.39084164 0.20546885
0.73004070 0.37613652 0.62434437
0.72965124 0.84382658 0.09022634
0.74413794 0.87063551 0.61957274
0.26881475 0.15536584 0.10051731
0.36117395 0.09709342 0.73906615
0.26187177 0.64477545 0.11557798
0.39165594 0.64785633 0.73522349
0.79877618 0.21021118 0.10439010
0.76657106 0.11411427 0.63395242
0.84287963 0.59798345 0.22576504
0.75331859 0.59729132 0.65776197
0.23645363 0.10765748 0.34900621
0.24726666 0.10213443 0.85095572
0.22729629 0.65675008 0.40463451
0.21719594 0.61600164 0.79807356
0.74262554 0.14540877 0.38173452
0.74050310 0.10019124 0.83380774
0.61452178 0.59377130 0.48609231
0.74458794 0.61502774 0.85292352
0.62622242 0.61783619 0.87075866
-0.00182388 0.97573135 0.01655167
0.00376748 0.02603032 0.52044243
0.98063248 0.51769408 -0.00238239
0.03033398 0.49970863 0.48537239
0.50241181 0.02161630 0.02002993
0.49568163 0.99002091 0.49349141
0.49079400 0.49567807 -0.00856894
0.53357379 0.50306124 0.49504226
0.02046902 0.24479877 0.24051163
0.97742786 0.25702204 0.73970421
-0.00742238 0.74610967 0.28832019
0.00603495 0.75893940 0.73395235
0.49162309 0.25254075 0.25397189
0.52285810 0.24652170 0.71538157
0.49359492 0.75955179 0.22054147
0.51322220 0.75971839 0.74540319
0.22059344 -0.01442900 0.26056212
0.25608201 0.03126929 0.75043429
0.28149368 0.48513454 0.24462149
0.23882386 0.48587784 0.78155277
0.76379486 0.01194534 0.24330837
0.74672048 0.99449143 0.77454125
0.74148774 0.49991704 0.26316354
0.75623216 0.53110859 0.76840612
0.26594978 0.24320952 0.00947307
0.24452035 0.29001445 0.50973780
0.25680950 0.71931162 0.02553212
0.28989224 0.74346464 0.48920317
0.74261097 0.25238671 -0.00451536
0.75210656 0.22623989 0.47148132
0.75711749 0.74360684 0.01535411
0.74575788 0.78163929 0.53283081
0.43973212 0.19126758 0.42990465
0.44840545 0.20044508 0.93231907
0.45777887 0.68391729 0.43603621
0.44114000 0.67772760 0.93998555
0.94720934 0.19373222 0.43981714
0.94515860 0.18794356 0.93555274
0.92853509 0.69164451 0.44305827
0.94670875 0.69965402 0.93381179
0.20568933 0.05834284 0.05872728
0.18827410 0.05706376 0.55862149
0.19056549 0.55201130 0.07241344
0.18690087 0.56500806 0.55208798
0.68635550 0.05605243 0.05955397
0.68812817 0.06159152 0.55581410
0.68692411 0.56311338 0.03878437
0.69384941 0.55096882 0.56293052
0.30467000 0.05972950 0.43952001
0.32166275 0.05829117 0.93935806
0.30648371 0.56668797 0.43526435
0.29663960 0.55430175 0.94918623
0.80795249 0.06080295 0.43899573
0.79722120 0.05744548 0.93900773
0.81111746 0.55343486 0.44507613
0.81484358 0.55955958 0.93356203
0.05937697 0.17711533 0.05728331
0.06808216 0.20023797 0.55322095
0.05667444 0.69318510 0.05372514
0.04560738 0.69189696 0.56016329
0.56544224 0.19347436 0.04473758
0.55624448 0.18914368 0.54681500
0.55565302 0.67596121 0.06116313
0.57340096 0.68814753 0.55522251
0.12270747 0.12182353 0.36944133
0.13167775 0.12742993 0.86667213
0.11473778 0.63039087 0.37689092
0.12924540 0.62666736 0.87733970
0.62697985 0.12781427 0.36601357
0.63257556 0.12869202 0.87436958
0.62802937 0.61137310 0.37013239
0.44889926 0.43632051 0.18372731
0.44124596 0.44791194 0.68957847
0.43876968 0.94404906 0.18944170
0.44716528 0.94079182 0.68257281
0.94708870 0.43880210 0.18410124
0.94608566 0.43996755 0.69143457
0.93578847 0.94408333 0.19281428
0.94039613 0.94925556 0.68748614
0.19055323 0.30588841 0.30343109
0.19056158 0.30876651 0.80816096
0.19408628 0.80888732 0.31709119
0.19315486 0.81449153 0.80425488
0.69621341 0.31054206 0.29832428
0.69649770 0.30941177 0.80856847
0.68059544 0.80216918 0.29912353
0.69285108 0.80709960 0.82100855
0.30611039 0.30636890 0.18716370
0.31292450 0.31963624 0.69677394
0.30824952 0.81057754 0.20074367
0.30465154 0.81416798 0.68371826
0.80709046 0.31067239 0.17941345
0.80630808 0.30901380 0.68713036
0.80105001 0.80871890 0.18642197
0.81159467 0.81444643 0.70185941
0.05597506 0.44439454 0.30390266
0.06036369 0.44178431 0.80733369
0.05303549 0.93619963 0.31167638
0.06135690 0.94756952 0.80310937
0.55909260 0.43724173 0.30350442
0.55855294 0.44558341 0.80534059
0.55427352 0.93795531 0.30650090
0.56640130 0.93815530 0.79825940
0.13133602 0.36940257 0.13115664
0.12993817 0.38056074 0.62226875
0.13017501 0.88146231 0.12438424
0.11437588 0.87671056 0.62451537
0.62771645 0.37609847 0.12249127
0.61528024 0.37414297 0.62278031
0.61648003 0.86966747 0.11665751
0.62729033 0.87747527 0.63021635
0.19272483 0.18412572 0.19018188
0.19785345 0.19694900 0.68780047
0.18770409 0.69355761 0.19596445
0.18922337 0.69168904 0.69406258
0.70292464 0.18605818 0.18400803
0.69222329 0.18752357 0.69294672
0.68836671 0.68614096 0.18170536
0.69355450 0.69432341 0.70295452
0.44268801 0.05854539 0.30617145
0.45403388 0.05762090 0.80495729
0.44384611 0.55730920 0.30190280
0.44361063 0.56318586 0.80807763
0.94242501 0.05762481 0.31372492
0.94012313 0.05880238 0.80692756
0.92736075 0.55309020 0.30540608
0.94954652 0.55967433 0.81164693
0.05366950 0.05307448 0.19018920
0.06188799 0.06832578 0.69354940
0.05056447 0.56570019 0.19308361
0.05709658 0.56430438 0.68949886
0.56308309 0.05734210 0.19114747
0.56494513 0.05620747 0.68312896
0.55950664 0.55788067 0.18573118
0.56062107 0.56621975 0.69111869
0.31134427 0.19129620 0.30614615
0.31412270 0.19571626 0.80567554
0.30461070 0.68753160 0.31222299
0.30896297 0.69706678 0.80479197
0.81816614 0.19832582 0.30265612
0.81283578 0.19559601 0.80780000
0.80134039 0.68624795 0.30010974
0.81768251 0.70126988 0.81659339
0.38269558 0.13100196 0.11791731
0.37636601 0.12111107 0.62354774
0.37908503 0.61890081 0.13424551
0.37611755 0.63471613 0.61993043
0.87349751 0.12023785 0.12111626
0.87981188 0.13130604 0.62013035
0.87164585 0.62424803 0.11565332
0.86590185 0.62476923 0.63463326
0.19888099 0.44737196 0.43211699
0.17968024 0.43653994 0.95355776
0.19433303 0.93714636 0.44109185
0.19640397 0.95016995 0.93517516
0.70203219 0.43047751 0.44392861
0.70385624 0.43998347 0.92796085
0.68536939 0.94596525 0.44158176
0.68287751 0.93801950 0.94101878
0.44603087 0.31145300 0.05894814
0.43613282 0.30379754 0.55255463
0.44022841 0.79730872 0.05265507
0.45202766 0.80467003 0.55092062
0.95201203 0.29777841 0.06155598
0.94895147 0.31475721 0.55551091
0.93965872 0.81325109 0.05537951
0.92685672 0.80622871 0.56089499
0.05919910 0.31485724 0.43283735
0.06375700 0.29779208 0.93867892
0.04448757 0.81061329 0.44372334
0.06325460 0.81681602 0.94437816
0.55229559 0.31133012 0.43287881
0.56144926 0.32295718 0.94475241
0.56788033 0.80615269 0.43787858
0.56335596 0.78207419 0.93776167
0.30745170 0.42995557 0.05693145
0.30983377 0.45364548 0.55509936
0.31778502 0.93623872 0.05026445
0.30839054 0.94218573 0.55699778
0.80335222 0.44406995 0.05566973
0.81326435 0.43798828 0.56336409
0.80182206 0.94026509 0.05701110
0.80922591 0.94711754 0.55452942
0.36760603 0.37038887 0.37280752
0.37210989 0.38043673 0.88161181
0.37904631 0.87491249 0.37760950
0.38239485 0.87191470 0.86861248
0.87929736 0.36912363 0.36940769
0.88507588 0.37292766 0.87625134
0.86197491 0.87021300 0.36744784
0.87640253 0.87545767 0.87339771
0.25990045 -0.00034645 -0.00491605
0.24802259 -0.00013428 0.49980617
0.24296151 0.49352282 0.00892625
0.24880206 0.50904304 0.49504311
0.74181650 -0.00284769 0.99877013
0.74789542 0.00417354 0.49747538
0.75270791 0.50345115 0.99007120
0.75252772 0.49363838 0.50337639
0.24950901 0.24589219 0.24665687
0.25412591 0.25549103 0.74968075
0.24815160 0.74991488 0.25543549
0.25120922 0.75355678 0.74620246
0.75509772 0.25023506 0.24167780
0.75116820 0.24892051 0.74798809
0.74371724 0.74646188 0.24143405
0.75232560 0.75584716 0.75958604
-0.00294922 -0.00301459 0.25307303
0.00065011 0.00558817 0.74575135
-0.00663935 0.50196335 0.24867370
0.00397024 0.50168776 0.74848348
0.50110848 -0.00019314 0.24641157
0.50574767 -0.00226832 0.74353121
0.50198663 0.49666631 0.24518886
0.50050609 0.50684623 0.74804458
0.00546716 0.24022327 -0.00103569
0.00544217 0.25566459 0.49524923
0.00044314 0.75688395 -0.00242776
0.98689896 0.75054993 0.50122798
0.50362487 0.25712432 -0.00434582
0.49652457 0.24894140 0.49098844
0.49980501 0.73394190 -0.00039251
0.51263527 0.74446260 0.49634622
Direct configuration=      2
0.24919159 0.14361689 0.40454964
0.11814526 0.13106384 0.75535737
0.09646620 0.50688266 0.39536300
0.10136420 0.50868667 0.91694102
0.63285260 0.01745365 0.34236546
0.74466015 0.14514864 0.88433472
0.64220938 0.51635356 0.36769046
0.66269598 0.63505679 -0.00476902
0.36363055 0.29352378 0.45977825
0.49486652 0.40092197 0.89198660
0.45036873 0.97423958 0.38967976
0.28733342 0.89303155 0.78781103
0.89608494 0.49437054 0.38536008
0.79545181 0.38668801 0.78132035
0.88837252 0.88570000 0.48154186
0.88031487 0.99116424 0.87636681
0.34692712 0.24471341 0.10596564
0.40830592 0.10311350 0.51116143
0.40893046 0.50599424 0.10870742
0.35720979 0.74359777 0.59951795
0.85020878 0.16153331 0.01379679
0.87838854 0.03404989 0.54847961
0.83731709 0.63887087 0.00575623
0.78866330 0.63752032 0.55093725
0.01357600 0.39293671 0.09841088
0.01263576 0.34708966 0.64222677
0.16282950 0.90322191 0.23258445
0.13286124 0.97602221 0.63322610
0.65592727 0.48230193 0.16447604
0.66198130 0.48752527 0.65696060
0.50529306 0.90754284 0.10617263
0.53305904 0.93864879 0.60256223
0.47360056 0.16130424 0.15827822
0.38952246 0.00675299 0.60942384
0.50167091 0.62076837 0.12096627
0.48570854 0.59799562 0.60327092
0.77296616 0.10488968 0.15028827
0.75917915 0.14910134 0.58617088
0.90536516 0.72832550 0.15794737
0.94170873 0.60594676 0.52950270
0.38225816 0.46431623 0.46359278
0.26317603 0.39483966 0.85953671
0.28635853 0.96019094 0.36938409
0.36147310 0.98847759 0.85902218
0.96495646 0.39047416 0.45164479
0.86117563 0.49131025 0.86611674
0.89054303 0.76218159 0.34827346
0.75510614 0.89978218 0.85170583
0.13592702 0.29798579 0.03907787
0.13212015 0.37074156 0.51888933
0.09456652 0.98308088 0.10151305
0.15953821 0.83459240 0.50540449
0.59479622 0.41441184 0.02470392
0.62800093 0.38190532 0.51218435
0.60296626 0.89765404 0.01113457
0.63834358 0.86111406 0.50561698
0.10778290 0.01646756 0.39557741
0.14661636 0.00030826 0.84515335
0.23967707 0.59384688 0.34861363
0.14928064 0.65132892 0.00178677
0.66307545 0.23803939 0.40533069
0.65216663 0.24656583 0.89963667
0.50998741 0.60259035 0.41228765
0.66468779 0.73901761 0.90632426
0.15631973 0.42103467 0.23163287
0.10467184 0.34844276 0.74584929
0.13125486 0.85695259 0.01014007
0.02836866 0.89078245 0.54043528
0.51012818 0.34642006 0.15075007
0.51516504 0.39273858 0.61301134
0.59135457 0.77354054 0.15886178
0.53888843 0.78751249 0.64082906
0.36286961 0.46323854 0.29180466
0.37056939 0.38654894 0.76013891
0.38919544 0.89881289 0.49018737
0.49394080 0.89564226 0.89724947
0.89707532 0.26322423 0.35587956
0.95688482 0.36169959 0.79282054
0.99486123 0.86036713 0.34636918
0.86907370 0.87347969 0.98542099
0.14106049 0.13882401 0.49370881
0.01054694 0.11766508 0.86898689
0.13858058 0.63707799 0.48174800
0.12660079 0.62588692 0.77358507
0.60836703 0.10367975 0.47933520
0.51253561 0.15308307 0.85135132
0.59717726 0.64194999 0.26906384
0.40215023 0.75491395 0.86983940
0.24915674 0.15302678 0.09776344
0.40776288 0.23363609 0.65368553
0.41462374 0.64945391 0.24916173
0.38687283 0.61069729 0.51239213
-0.00166793 0.11339187 0.10391802
0.86850835 0.21577368 0.52930178
0.84222341 0.50698569 0.13166007
0.86627473 0.50622833 0.63675703
0.10127486 0.28165785 0.20276778
0.15458729 0.26147367 0.60968104
0.11833779 0.75546756 0.13657674
0.09367206 0.75149086 0.64184878
0.63770433 0.26143494 0.10813663
0.73998705 0.34091029 0.59788084
0.73092430 0.86907937 0.11262192
0.70295068 0.77742295 0.61246097
0.34291472 0.11391657 0.24522389
0.27258669 0.14714159 0.59296386
0.38329905 0.73449384 0.13030412
0.34918901 0.51992616 0.65890059
0.90503014 0.01938248 0.09066237
-0.01347953 0.11887699 0.60967669
0.97527562 0.59323521 0.09220435
0.96067354 0.63260034 0.70689912
0.48942102 0.38174810 0.38372438
0.36333313 0.49461245 0.85008665
0.34104568 0.77341109 0.39398444
0.39838497 0.89610417 0.99028859
0.80044922 0.36139954 0.45093428
0.96419172 0.39190580 0.94775218
0.88612133 0.87039080 0.24953589
0.98225786 0.86417347 0.85808032
0.15252236 0.24368363 0.39578485
0.10203764 0.09528348 0.98619849
0.11847084 0.73282817 0.35628702
0.14062529 0.74256142 0.89680851
0.51098099 0.16224334 0.34691145
0.61235149 0.14512710 0.75335595
0.60044853 0.74024197 0.35957748
0.58671797 0.66416242 0.76600767
0.25999798 0.38990207 0.36828150
0.39570041 0.40174388 0.98876550
0.47850146 0.83533888 0.33795598
0.42318835 0.84295727 0.76116174
0.95979965 0.36645206 0.28039123
0.86075706 0.26019206 0.88175415
0.90278335 0.99073979 0.39045285
0.84831784 0.89731231 0.74904476
0.33528439 0.01543337 0.14495159
0.49659402 0.13153014 0.64650869
0.27588491 0.58598854 0.16291404
0.25798585 0.64917937 0.60680882
0.90717895 0.24556082 0.14174544
0.84062390 0.08351793 0.71827770
0.83523552 0.59796140 0.23207040
0.78778991 0.61053455 0.71095348
0.02722602 0.15801008 0.34660418
0.13548601 0.22969394 0.88290284
0.00831998 0.60940419 0.37947946
0.01116429 0.62963515 0.88363697
0.61589724 0.14419855 0.25480198
0.61034830 0.11340920 0.98431893
0.73663420 0.65482181 0.40009877
0.68571673 0.52165604 0.85195197
0.11428411 0.48170509 0.08651083
0.11368246 0.48683678 0.62516714
0.01151367 0.85660851 0.15297854
0.03051075 0.86119547 0.69414798
0.61228091 0.34423210 0.24722827
0.60034572 0.26011952 0.64310538
0.64168052 0.90368494 0.24184020
0.63898660 0.88203170 0.73468943
0.39291217 0.29665150 0.29193277
0.36876860 0.26782966 0.88460230
0.34771252 0.89774078 0.26156611
0.26830387 0.83871720 0.91823862
0.80140343 0.39401022 0.28598922
0.78616470 0.35884914 0.94828691
0.76669669 0.88265786 0.36820852
0.86007517 0.76210964 0.87548813
0.23956642 0.35557525 0.10701217
0.24096820 0.39848415 0.66155059
0.23624376 0.84324903 0.10094314
0.23275070 0.84182431 0.61720031
0.74127145 0.37897991 0.13226011
0.62184345 0.37113823 0.74231053
0.64118529 0.00054362 0.14608981
0.70694162 0.95556222 0.63171285
0.39175815 0.11093873 0.02093494
0.35218210 0.09415928 0.73432624
0.37237219 0.62989803 0.02054921
0.40647323 0.65900132 0.73329752
0.90619624 0.14216944 0.23607806
0.89911033 0.22205942 0.69237512
0.76779050 0.69145997 0.11176762
0.89591983 0.73758234 0.64468096
0.16441517 0.09662771 0.26838549
0.24392729 0.10421318 0.86025504
0.13364489 0.60184079 0.25464805
0.24080344 0.61565835 0.87555830
0.73931056 0.10512347 0.34876346
0.64268120 0.02027464 0.85105903
0.63987781 0.64835029 0.49708583
0.51531850 0.57681068 0.91356919
0.62112510 0.62676279 0.88118431
0.00996122 0.02397582 0.02561866
0.97021004 0.98133747 0.49164661
0.01952878 0.48600479 0.00852192
0.99305115 0.51088484 0.46174907
0.49829325 0.96042398 0.99734522
0.47036183 0.99540250 0.51027910
0.49273924 0.48275755 -0.00743815
0.47577081 0.52852156 0.50205434
0.98595436 0.24759762 0.25394233
0.00419381 0.27112543 0.73420651
-0.02593203 0.78179314 0.24578403
-0.00173608 0.74735764 0.71825832
0.50461904 0.24875718 0.24632174
0.51727707 0.22035614 0.72564996
0.51591782 0.73654975 0.26040224
0.49108804 0.74559028 0.74899527
0.26133250 -0.00294405 0.25478406
0.26656069 0.00878557 0.78217862
0.24737667 0.50774327 0.26072854
0.28194064 0.47149803 0.75512454
0.70838064 0.00777736 0.24841432
0.75113916 0.97389249 0.75126672
0.76277367 0.48808481 0.22172182
0.74986339 0.49682178 0.74806225
0.24916956 0.25691789 0.03638524
0.23372917 0.22668545 0.49778183
0.21481333 0.76390891 0.99731472
0.25057612 0.75314854 0.53443040
0.76471962 0.23970726 0.96004520
0.75701606 0.25875585 0.50513101
0.74384859 0.72074148 -0.00165628
0.72853405 0.72775280 0.50432324
0.44098659 0.19790714 0.43970841
0.44181254 0.19239560 0.94274789
0.43167190 0.69999172 0.44049063
0.45234485 0.68131008 0.94902705
0.95112354 0.19152871 0.43968162
0.94390306 0.18743530 0.93731747
0.93761093 0.68984981 0.43316266
0.93104769 0.69226423 0.94470395
0.19024024 0.05145818 0.05960393
0.19123610 0.05719499 0.56604429
0.20244121 0.56214430 0.06451109
0.18468853 0.56163409 0.56306989
0.69577951 0.06773232 0.05888137
0.68789831 0.05419623 0.55347667
0.68107840 0.54062962 0.06056917
0.69525002 0.55519397 0.56167432
0.31107874 0.05134245 0.44950411
0.31252041 0.05517774 0.94808082
0.30310538 0.55829419 0.44493969
0.31699429 0.55787248 0.94453598
0.80848149 0.05888334 0.43829066
0.81324213 0.06313160 0.94279129
0.81114350 0.56450003 0.44821246
0.78402045 0.55567029 0.93337543
0.06589891 0.19643644 0.05292898
0.06276123 0.19747194 0.56140954
0.04824903 0.68985966 0.06154824
0.05033923 0.68051774 0.54949583
0.55326998 0.18889581 0.06234904
0.56186854 0.18601418 0.55423573
0.57192334 0.69472639 0.06358076
0.54963372 0.69569244 0.55901428
0.13585549 0.12828580 0.37821610
0.12610931 0.11465266 0.86973010
0.12493919 0.61869117 0.36878310
0.12672004 0.62538436 0.88861170
0.62520133 0.13168328 0.36887781
0.62759057 0.13411252 0.87062146
0.62233038 0.62826837 0.38232559
0.44403310 0.43635498 0.20139559
0.44867571 0.44941856 0.69224209
0.42978650 0.95111665 0.18956061
0.44634279 0.93803127 0.69210151
0.93876231 0.44021654 0.18296816
0.94691801 0.43988341 0.69781450
0.94939246 0.95405687 0.18740979
0.93812848 0.94237819 0.67893938
0.18548693 0.31676856 0.30612833
0.19782032 0.30263608 0.80927452
0.19597403 0.80692080 0.30543408
0.20035645 0.81191869 0.81692980
0.70577908 0.30862775 0.31198667
0.70098828 0.30612979 0.80392141
0.68902567 0.81284748 0.30939778
0.69091348 0.80587438 0.81169104
0.31079340 0.31532378 0.19968407
0.31469180 0.30387743 0.68992952
0.31021247 0.80548177 0.18946040
0.31439657 0.80914144 0.70118155
0.81800576 0.31038379 0.19451188
0.81396792 0.30898176 0.68683087
0.80187074 0.80240041 0.18374962
0.80053840 0.80462935 0.68645606
0.05478955 0.44385026 0.29830736
0.05559500 0.43838018 0.81894375
0.06952888 0.94487767 0.30440646
0.05433319 0.93574288 0.79477847
0.56684565 0.43867610 0.31282698
0.56895020 0.45412558 0.81174557
0.54412585 0.94568075 0.30783502
0.56254210 0.93848130 0.80999641
0.12516820 0.37242946 0.12960528
0.12882763 0.37309113 0.63292758
0.12477323 0.87035503 0.12561878
0.11733390 0.86399884 0.61275542
0.62405511 0.37169470 0.13421001
0.62830197 0.37478714 0.62708879
0.61883480 0.88587817 0.12814954
0.62555901 0.86816706 0.62074142
0.19051572 0.19477384 0.19941383
0.20165657 0.18550958 0.68976242
0.19861012 0.68314590 0.18986624
0.19344954 0.69339175 0.70118822
0.69917818 0.19397395 0.18723644
0.69469469 0.19196357 0.68008110
0.68074753 0.69385347 0.19438946
0.68740482 0.68785631 0.69578904
0.43553333 0.06740002 0.31058896
0.44759308 0.05882116 0.80617896
0.44659919 0.55278861 0.31493867
0.44995187 0.56759073 0.80866234
0.95653926 0.06462341 0.31140491
0.93633763 0.05886221 0.79655056
0.93867743 0.56350057 0.29254375
0.94317706 0.56233758 0.81000668
0.07168979 0.06509802 0.19249697
0.05750827 0.05618397 0.68427869
0.05751939 0.55602422 0.17590626
0.06079686 0.56041002 0.70016862
0.54749624 0.06689656 0.18875481
0.56891683 0.04644195 0.68839209
0.56452685 0.55364640 0.19601172
0.56605265 0.56576800 0.69147067
0.31002284 0.20457815 0.31763230
0.31673182 0.18811384 0.80868771
0.31226305 0.68921231 0.30929984
0.31484539 0.68835372 0.81428108
0.81553628 0.18619881 0.30433547
0.81614590 0.18500646 0.79198228
0.80316492 0.69183789 0.30577091
0.80592414 0.68566058 0.80647415
0.36197446 0.13019875 0.13065049
0.38230438 0.12223516 0.62425668
0.38795806 0.61964462 0.13464171
0.37223827 0.63009753 0.62574193
0.88361012 0.13156894 0.12307619
0.87266196 0.13284597 0.61540939
0.86408284 0.62351822 0.11988972
0.87482532 0.62128099 0.62806575
0.18691035 0.44366609 0.44704226
0.19650925 0.44133876 0.95049398
0.19041099 0.94095135 0.44499555
0.19419567 0.93680799 0.93858244
0.70105831 0.43944404 0.43763557
0.68396935 0.42869278 0.93751431
0.68508678 0.94530792 0.42948291
0.68972843 0.95033726 0.94093562
0.43927044 0.30951053 0.06040067
0.44549350 0.30772887 0.55908107
0.44699358 0.80440341 0.05979642
0.44369581 0.81685409 0.56182645
0.94149578 0.31002144 0.04505701
0.94340873 0.31276715 0.54883236
0.93453341 0.80873167 0.06352342
0.94311602 0.80556911 0.55152946
0.06467600 0.31334668 0.43962670
0.06150346 0.30821142 0.93590373
0.06035556 0.80507993 0.43621566
0.04750892 0.80747365 0.94091852
0.56445937 0.30788130 0.44254581
0.56105539 0.31158302 0.94972380
0.55078070 0.81324783 0.43812491
0.56376629 0.80322198 0.94023696
0.31487974 0.44417096 0.06566365
0.30545362 0.44609895 0.56385384
0.30634769 0.93352716 0.05902758
0.30155921 0.93492749 0.56726901
0.80687217 0.43165371 0.04523768
0.81184330 0.43557444 0.55387116
0.80845455 0.94613154 0.05897050
0.79981115 0.93791670 0.55006742
0.37456752 0.37972118 0.37892328
0.37993147 0.38131425 0.87539455
0.37653271 0.88276507 0.37404464
0.37778678 0.87069566 0.87244146
0.88300163 0.37794595 0.36943236
0.87298461 0.37641413 0.87077717
0.88055231 0.87752976 0.36548631
0.86895670 0.87742414 0.86892308
0.24975632 0.99488863 0.00067062
0.24780360 -0.00337113 0.50752315
0.25666114 0.50055823 0.00429256
0.24521898 0.50296164 0.50634821
0.75112166 0.00636075 -0.00036351
0.74612251 -0.00066461 0.49061842
0.73945972 0.48974699 -0.00354670
0.75376230 0.49958102 0.50099886
0.24950843 0.25601431 0.25398841
0.25756327 0.24552400 0.74979948
0.25275140 0.74580316 0.24946645
0.25493212 0.74919861 0.75915858
0.75864331 0.24948824 0.24894838
0.75403257 0.24763613 0.74028577
0.74270489 0.75091237 0.24957921
0.74857180 0.74639709 0.75150498
0.01121100 0.00680274 0.24837970
0.99504674 -0.00248379 0.73994207
-0.00225469 0.50184231 0.23737938
0.00323731 0.49911884 0.75763009
0.48946419 0.00860138 0.24792374
0.50563206 -0.00241244 0.74958334
0.50556751 0.49626548 0.25540952
0.50830282 0.50783496 0.75065221
0.00304214 0.24863615 0.99299441
0.00682202 0.25329039 0.49712705
-0.00912799 0.75014663 0.00320431
-0.00186974 0.74517657 0.49216825
0.49945999 0.25165742 0.00269156
0.50419925 0.24924981 0.50049698
0.50897492 0.74650383 0.00354889
0.49368403 0.75469709 0.49877353
