Li192 P32 S160 Cl32
1.0
20.312311 0.000190 -0.000113
0.000190 20.312339 -0.000033
-0.000113 -0.000033 20.312424
Li Cl S P
192 32 160 32
Direct configuration=      1
0.01127708 0.14362618 0.34155668
0.04544223 0.16415944 0.79836209
0.14468737 0.64843399 0.48789004
0.05331549 0.73626767 0.85970872
0.70911262 0.02396370 0.36450406
0.58004499 0.19641011 0.77957190
0.76274988 0.57278229 0.15974854
0.74690457 0.48414248 0.85982240
0.14965023 0.23142114 0.39965929
0.18636040 0.03104479 0.85928361
0.30482737 0.48854869 0.35594923
0.27132095 0.55305196 0.66255709
0.59593481 0.20209248 0.32265785
0.74679760 0.30869467 0.91192275
0.51052159 0.39496203 0.58335777
0.58641259 0.72111169 0.84078035
0.14018273 0.03854073 0.29514783
0.18490519 0.11394772 0.76013954
0.17344775 0.54825243 0.27551258
0.32226582 0.56583873 0.80319360
0.59316779 0.03290893 0.48900825
0.51397163 0.12116005 0.91088729
0.67181867 0.64725186 0.46401178
0.53598486 0.59253337 0.93806880
0.03760385 0.09592507 0.47766763
0.16734101 0.17921136 0.00232159
0.02579887 0.65124981 0.37075749
0.21970105 0.67083102 0.93767980
0.67557056 0.08472319 0.26435697
0.66744502 0.01989672 0.85065046
0.50370063 0.56712592 0.42107553
0.73335290 0.77075732 0.91362228
0.28562456 0.09862905 0.32552779
0.03017742 0.08050799 0.93655145
0.25104276 0.66371201 0.41025736
0.07155283 0.88910280 0.74814931
0.73121201 0.19003785 0.39979692
0.64791727 0.17441650 0.99274774
0.83699685 0.76142275 0.41745298
0.68412928 0.65862461 0.99808134
0.25522755 0.08089442 0.17435089
0.26292878 0.17436251 0.89519173
0.10429273 0.68394477 0.27155713
0.99047098 0.63903756 0.13700226
0.52609140 0.08617450 0.36950951
0.86519249 0.99484315 0.81873870
0.74560172 0.59116247 0.31606382
0.64599925 0.56982339 0.78093797
0.11739224 0.51903353 0.88584897
0.10249911 0.52067417 0.39126275
0.22990537 0.82080757 0.89836831
0.09465441 0.89991311 0.51136588
0.70369204 0.32467822 0.04892414
0.69819714 0.39482995 0.71371184
0.60529666 0.73387418 0.36307683
0.67225543 0.89460669 0.71424620
0.20274058 0.26920738 0.10311134
0.16603448 0.19217724 0.54833931
0.25524085 0.85331954 0.07759741
0.19948699 0.89174979 0.71884483
0.85752582 0.33065534 0.00378550
0.63470971 0.26307680 0.58844991
0.64271127 0.91561897 0.23289600
0.52587590 0.86516267 0.69118680
0.07929445 0.41378117 0.02783905
0.22107757 0.34448727 0.54210347
0.15110510 0.77454356 0.04032235
0.17649114 0.76096827 0.60205558
0.59671122 0.43014611 0.02943549
0.55027360 0.35244875 0.72084845
0.60298298 0.75438921 0.14020085
0.68262114 0.75795461 0.61436554
0.02824674 0.32066570 0.14010708
0.91211521 0.39539912 0.49706357
0.04637845 0.87231593 0.18036927
0.01524336 0.96420626 0.62131796
0.49169703 0.37425734 0.14564043
0.62488928 0.49550993 0.63282864
0.58624088 0.88110231 0.00153947
0.40668046 0.85516719 0.76395379
0.19772656 0.40858014 0.23031225
0.07209556 0.47476332 0.58713647
0.07757035 0.89956561 0.01389356
0.13560863 0.00025772 0.67182601
0.71014801 0.42821586 0.16106621
0.65051189 0.36733646 0.49532677
0.61092853 0.00027470 0.08964539
0.62882433 0.82826410 0.50993183
0.33802757 0.25543168 0.09138036
0.22932787 0.41367963 0.67150248
0.20440192 0.90523834 0.20981150
0.02946763 0.77988446 0.63328230
0.61959814 0.52854574 0.29144754
0.73662397 0.33496944 0.59094537
0.72006669 0.82340493 0.08469029
0.78068245 0.10511812 0.71741209
0.50363994 0.18634574 0.16794857
0.46114084 0.21136976 0.66320324
0.34671960 0.51342174 0.13161095
0.15008263 0.57574604 0.74898019
0.86483705 0.10793065 0.24828809
0.61863652 0.18151447 0.47793191
0.91725219 0.49604806 0.07371681
0.85508782 0.50940715 0.64293745
0.35877174 0.94941967 0.27352539
0.32083564 0.11269073 0.70236291
0.35095725 0.65087891 0.01261086
0.48137030 0.68272622 0.64624458
0.77016221 0.03505471 0.15039960
0.89131811 0.05113498 0.54856583
0.86936264 0.52874782 0.22181056
0.83439426 0.74393988 0.60167291
0.43219678 0.25938284 0.32443505
0.44691147 0.04046321 0.62503392
0.43349292 0.64126372 0.24158129
0.34172720 0.67459302 0.51586347
0.99383152 0.13248949 0.12750437
0.93978337 0.22761022 0.64459994
0.84760826 0.71741023 0.10795348
0.74496716 0.58044415 0.63948887
0.14306523 0.98867861 0.13126488
0.29416712 0.01704782 0.62540254
0.28550178 0.70682801 0.11258595
0.36576888 0.43378291 0.73717752
0.90006941 0.22609458 0.17323169
0.82742511 0.93195367 0.69126100
0.82921207 0.63349196 0.02174734
0.97363705 0.59874874 0.58745893
0.34986332 0.14663991 0.00687579
0.27771336 0.12983725 0.53115786
0.48199029 0.59415694 0.11296747
0.41007084 0.52979487 0.54980450
0.77412322 0.19622236 0.11635861
0.74408663 0.16262608 0.58348029
0.04163707 0.61933263 0.97510498
0.94683784 0.64096802 0.70226991
0.45462178 0.06334865 0.09803435
0.42109136 0.10121211 0.51468014
0.27529435 0.61070622 0.22331638
0.29470677 0.71363343 0.62916705
0.86540935 0.15181317 0.00434503
0.07556439 0.35290057 0.71084089
0.15273249 0.77608937 0.42218973
0.83491235 0.64088272 0.51036272
0.60212878 0.35273288 0.25456529
0.26461538 0.40085356 0.83503600
0.30926827 0.81696780 0.48562210
0.37054922 0.80454793 0.96328763
0.76490175 0.40644802 0.34945416
0.14143183 0.26369912 0.89024236
0.85219799 0.92352683 0.26746142
0.97133247 0.94380759 0.92007135
0.35026695 0.39507620 0.26302470
0.40166805 0.28681258 0.84010435
0.36664295 0.97346135 0.41863069
0.33334340 0.00654808 0.81818658
0.89065672 0.50230885 0.37932452
0.86455511 0.41414998 0.75718450
0.90880236 0.96289952 0.40639443
0.88682084 0.77543682 0.83276992
0.29487283 0.28066955 0.39722164
0.27216227 0.34872581 0.97775143
0.45270674 0.87723562 0.45118494
0.40581207 0.71164721 0.81953815
0.99369370 0.38381642 0.35373926
0.91678251 0.26059884 0.84425580
0.78859177 0.85764823 0.48011277
0.84774859 0.84182238 0.00910045
0.47858929 0.42257828 0.42419954
0.41405080 0.41090043 0.99118990
0.26267994 0.89265294 0.34349536
0.40414553 0.74867514 0.15115830
0.80943981 0.30280901 0.46588011
0.92995490 0.47420421 0.90170133
0.74942236 0.89116310 0.34880841
0.75130294 0.91241215 0.84090231
0.33861114 0.22829939 0.56603757
0.39039919 0.50783435 0.89924673
0.46706613 0.86843515 0.29831013
0.50739063 0.90010588 0.11430240
0.85546964 0.38832494 0.25582380
0.75766674 0.16087016 0.90041119
0.97734428 0.83537977 0.35681654
0.90822697 0.01818886 0.08356908
0.17251563 0.50198898 0.14660241
0.49582433 0.39606156 0.88244395
0.40340502 0.75248961 0.35183824
0.41274989 0.97466305 0.94179477
0.91967860 0.27088357 0.35015685
0.82799230 0.58881019 0.77753400
0.90783195 0.73022899 0.25706451
0.65365644 0.04157527 0.69500580
0.37244528 0.63459134 0.61222521
0.12518896 0.63181178 0.86383927
0.61545045 0.86583901 0.61982111
0.86827664 0.35598008 0.87845978
0.38079853 0.14119609 0.12534681
0.37195803 0.35778117 0.36332600
0.60690107 0.61624771 0.37663803
0.12499831 0.38798193 0.12665877
0.13914005 0.38330287 0.61142430
0.64594015 0.62423737 0.89015465
0.86456481 0.88230889 0.88234827
0.10862172 0.11326160 0.38515122
0.63564102 0.12242163 0.88115699
0.61530617 0.38272054 0.13989710
0.85425514 0.12601225 0.62800082
0.36877856 0.87753056 0.87077270
0.99039393 0.98969573 0.02322237
0.99439935 0.99364230 0.50572214
0.00111012 0.48498961 0.98962911
0.00577124 0.50746478 0.49181491
0.50525007 0.99475013 0.01359435
0.48697461 0.00044621 0.49767679
0.49029058 0.48910947 0.98097336
0.50867023 0.49403809 0.51464530
0.97885187 0.24192147 0.24471096
0.99035978 0.26030175 0.75590847
0.01171510 0.74314543 0.27168522
0.96065988 0.75511819 0.74892556
0.50390132 0.27616278 0.24339466
0.49799527 0.26985386 0.75520995
0.47741042 0.75476309 0.25063583
0.48204768 0.76904925 0.75859921
0.24581540 0.99955819 0.25572367
0.24835189 0.02069948 0.73697195
0.26787144 0.49685140 0.22783168
0.24825919 0.49929636 0.75015440
0.74466723 0.98691037 0.25673056
0.75190907 0.98807362 0.74866096
0.76161176 0.48372683 0.25454214
0.74433447 0.50859070 0.73853948
0.27431965 0.24015237 0.00053155
0.24229645 0.24612910 0.49138365
0.27067055 0.75325331 0.00133707
0.23162136 0.73634474 0.50429666
0.75598569 0.23860488 0.99351685
0.72028842 0.25432589 0.51297658
0.77260592 0.73460755 0.01142609
0.74659829 0.74887850 0.50785535
0.43975308 0.19105417 0.43718867
0.44025382 0.20860027 0.93725919
0.43224661 0.66842465 0.44115870
0.43807162 0.68179084 0.94202429
0.92537717 0.15754582 0.44388927
0.97706245 0.18701031 0.94642985
0.94157899 0.68325569 0.44258981
0.94769687 0.69705639 0.94070670
0.21182896 0.05412279 0.06062520
0.19116546 0.05361757 0.55085794
0.17979282 0.55659813 0.03447665
0.19300899 0.56376893 0.56420759
0.69230329 0.06762670 0.04026353
0.66657238 0.05243886 0.56351680
0.69066547 0.53804633 0.04715915
0.69350045 0.54426875 0.54865458
0.31337148 0.07249045 0.43353678
0.31532454 0.05409707 0.93690695
0.32086538 0.56474888 0.45611696
0.30069078 0.56826282 0.92652982
0.80075646 0.05084274 0.46411523
0.81468291 0.05996557 0.93373273
0.81173494 0.55564985 0.44229961
0.82156847 0.53146802 0.94998282
0.07814570 0.21997575 0.07906336
0.03782281 0.19227460 0.56517738
0.06330635 0.69728503 0.06142824
0.04927496 0.69375271 0.55866732
0.54985256 0.20177247 0.06282398
0.54016581 0.18894386 0.56142317
0.55975329 0.67039668 0.04648026
0.55790521 0.68379144 0.55126088
0.14909673 0.14019451 0.86329144
0.13963432 0.63197559 0.37968706
0.63447435 0.11574009 0.38836049
0.43446020 0.44638571 0.20099514
0.44887068 0.46578453 0.68025671
0.43575921 0.95509028 0.18440471
0.43576296 0.95401122 0.70838961
0.96712184 0.44170103 0.18442319
0.94912410 0.43597699 0.67727380
0.94697055 0.93638764 0.18692445
0.94769807 0.95490366 0.73010005
0.20268452 0.31195466 0.31392797
0.18282061 0.31410713 0.79096659
0.18567192 0.80891307 0.29913328
0.16493489 0.79171566 0.80761136
0.68291085 0.29560601 0.32679577
0.67380513 0.28813027 0.81101387
0.67463244 0.78990937 0.28413694
0.67603012 0.80838459 0.81185952
0.28754224 0.32700803 0.17195237
0.29581296 0.31368872 0.66922909
0.30542383 0.80698843 0.18714002
0.29527935 0.82325769 0.71278068
0.79070268 0.31427279 0.18341886
0.79121948 0.31690168 0.69559674
0.81671487 0.78183437 0.20219324
0.77931399 0.80630170 0.68975043
0.08988739 0.45215297 0.29418726
0.06412469 0.45061541 0.79916909
0.05959755 0.93646818 0.29433938
0.06134661 0.96842540 0.83979335
0.55243014 0.44098102 0.31784973
0.56004463 0.46699531 0.80283721
0.55521738 0.95475176 0.30820448
0.58291927 0.96077393 0.78900356
0.13671433 0.87693364 0.10851598
0.10489414 0.87739648 0.64252911
0.62372714 0.37951045 0.62440033
0.61876849 0.87522073 0.11878546
0.19259151 0.19012776 0.18877139
0.17616748 0.19444723 0.68336757
0.18916611 0.69431133 0.18940997
0.19807403 0.69197900 0.69149260
0.69251566 0.18313679 0.20482419
0.68064548 0.19487359 0.68418665
0.69442527 0.65838712 0.20093884
0.67732113 0.68206551 0.71326404
0.43678425 0.05458735 0.30394703
0.45408185 0.04904762 0.83966506
0.42816232 0.54143683 0.34128421
0.44818194 0.58183320 0.81039750
0.93522488 0.04626255 0.32072686
0.95113681 0.08888685 0.83452040
0.96133023 0.57155097 0.29897370
0.93204236 0.54974441 0.80044342
0.06100260 0.07052149 0.20487458
0.04909660 0.07455543 0.70298420
0.07442495 0.57199814 0.18992291
0.04812893 0.56128518 0.67597471
0.55492338 0.07403780 0.18769716
0.54222308 0.09801392 0.70619188
0.53739013 0.56672598 0.21503634
0.55888100 0.58305177 0.68539722
0.31564561 0.20229387 0.30150899
0.30832014 0.19802920 0.78567188
0.30024820 0.68901680 0.30750738
0.28943505 0.68571313 0.82493936
0.81559679 0.20547289 0.30758523
0.80839502 0.19493517 0.80416408
0.80745074 0.68676840 0.32641979
0.79418930 0.69374793 0.82525727
0.38328269 0.13675168 0.61408226
0.37585329 0.63275477 0.13871400
0.86898348 0.12233586 0.12706533
0.87525615 0.60135189 0.13452001
0.85517590 0.62376935 0.63834932
0.20362112 0.45538180 0.43446505
0.19657735 0.43555615 0.92019828
0.18922246 0.94677993 0.42453302
0.19293124 0.94193133 0.94580658
0.68779671 0.45353465 0.43841851
0.69772320 0.40616694 0.95469276
0.68760687 0.93526513 0.44738110
0.69696867 0.94355887 0.93768193
0.43417903 0.31940863 0.06693865
0.43512399 0.31936982 0.52814758
0.46027925 0.80356813 0.05353456
0.42783623 0.79637992 0.54667472
0.94228686 0.28895104 0.07667923
0.92599126 0.29080275 0.54537022
0.95536370 0.80355800 0.06818760
0.92941471 0.81159840 0.55624301
0.03946768 0.28524384 0.41750318
0.05278120 0.32551922 0.95451837
0.04396008 0.81474795 0.44737380
0.06974838 0.80904622 0.94375327
0.55834694 0.29729166 0.42666130
0.55651117 0.33356911 0.96266663
0.53954620 0.80924756 0.44154307
0.55405058 0.79217916 0.92266143
0.30249299 0.44511986 0.03450735
0.31630065 0.44221091 0.56714922
0.32638767 0.93516007 0.05080659
0.30939597 0.93863546 0.53116965
0.80786682 0.42753310 0.07909622
0.80988864 0.42706536 0.55970670
0.79840541 0.95694204 0.06966250
0.80350718 0.93679486 0.57524581
0.37640300 0.39616544 0.87766962
0.37638660 0.86500488 0.36327568
0.87959300 0.38252783 0.37289553
0.85985440 0.86544213 0.36638447
0.26222095 0.99137436 0.00022741
0.24674670 0.00160624 0.48612735
0.24154045 0.50423639 0.97808361
0.25475246 0.50372520 0.50871934
0.75117080 0.00351611 0.99519363
0.73581053 0.99286609 0.51525555
0.75764778 0.47785992 0.00968603
0.75660783 0.49010316 0.49681732
0.25357738 0.25837427 0.24301464
0.24136762 0.25627686 0.73224050
0.24840676 0.75177544 0.24814584
0.24261248 0.74737842 0.76367620
0.74582685 0.24891829 0.25442917
0.74230939 0.25044250 0.75027060
0.74889691 0.72445119 0.25369025
0.73638726 0.74348544 0.75944517
0.99860806 0.99771777 0.25069832
0.00488812 0.02693110 0.77867669
0.01961605 0.50590976 0.23845007
0.00060452 0.49774804 0.73750432
0.49800958 0.00922530 0.24374158
0.50253087 0.01292775 0.76142637
0.48608013 0.49597839 0.27445429
0.50467345 0.52257262 0.74564597
0.01453549 0.25337176 0.01016619
0.98363146 0.22919045 0.49001694
0.00671347 0.75519815 0.99903292
0.98664716 0.75106231 0.50034220
0.49486307 0.26510922 0.00554930
0.49719768 0.25371985 0.48999515
0.50702145 0.73911545 0.99235104
0.49152340 0.73293170 0.49584086
Direct configuration=      2
0.01388266 0.15408058 0.31345382
0.06332273 0.17137307 0.77986482
0.14823193 0.66471003 0.49925493
0.07194523 0.72312362 0.87652083
0.71802061 0.04106703 0.35308505
0.58444595 0.19445728 0.78714058
0.75445016 0.59369576 0.17141796
0.75992617 0.47885917 0.85187656
0.15011480 0.22483445 0.40661760
0.19443393 0.02160921 0.85624546
0.30293112 0.51378834 0.34281778
0.27970994 0.55797969 0.65506696
0.59557914 0.22295368 0.33100546
0.74085878 0.30577569 0.90726336
0.52841477 0.41484112 0.56735305
0.58189925 0.74029961 0.80903627
0.15923068 0.03289110 0.31349134
0.18734612 0.11948908 0.77065663
0.15671145 0.53229819 0.31257736
0.30753808 0.58153795 0.79983207
0.58121395 0.01300667 0.41116502
0.51012447 0.10791199 0.90808775
0.65712117 0.67006423 0.48679160
0.52274098 0.60711489 0.94056195
0.03814444 0.07117483 0.44271827
0.16911313 0.15838383 0.99375860
0.00648227 0.67029548 0.37205441
0.22222969 0.69025952 0.92062047
0.64790462 0.09331464 0.25428157
0.67239111 0.03824164 0.85056345
0.54505950 0.60557741 0.46018550
0.71221853 0.71507367 0.89719253
0.30180749 0.08255049 0.30858108
0.99957588 0.07792475 0.90617749
0.25032798 0.65205518 0.40156736
0.04624491 0.88254891 0.76097845
0.73907952 0.17944173 0.40378987
0.66833281 0.18335919 0.00114778
0.81465708 0.74182487 0.40199979
0.67612742 0.65529640 0.03226278
0.27311815 0.09380963 0.16552328
0.24083976 0.20825211 0.88343394
0.10712160 0.69701185 0.26730187
0.98734407 0.62375713 0.14114339
0.51392918 0.12746155 0.38136254
0.86026890 0.02518510 0.81090426
0.74409738 0.54624496 0.35150476
0.66109958 0.57154241 0.79916989
0.13400976 0.51042589 0.86736901
0.10685914 0.53906916 0.45076870
0.23852703 0.86119411 0.91934729
0.09993473 0.90489247 0.49805220
0.75264922 0.29791176 0.07441006
0.70856453 0.38312859 0.72346413
0.57438601 0.70945965 0.32312671
0.68787758 0.89986371 0.72370068
0.19107127 0.28032830 0.07921667
0.15081632 0.21443046 0.57492628
0.24240506 0.85014178 0.09203436
0.19749890 0.88304283 0.73610847
0.87054561 0.31358298 0.97068648
0.63108975 0.24882438 0.61570430
0.69594251 0.91240242 0.19585259
0.53778948 0.86100097 0.72735736
0.09428587 0.44812236 0.01233370
0.20576709 0.36792612 0.51559883
0.13940923 0.77933276 0.05676795
0.15722018 0.78667903 0.57954859
0.61437717 0.45351798 0.02754218
0.52230253 0.35070568 0.70568458
0.61000932 0.78479650 0.19374855
0.67716382 0.75974955 0.61550418
0.05793368 0.30450263 0.15916422
0.91498735 0.40789206 0.49714196
0.03524235 0.85314368 0.17796452
0.00131668 0.92154698 0.59946986
0.50407295 0.34283886 0.16604159
0.67070230 0.47240816 0.64892591
0.62574389 0.86936772 0.99181350
0.39283580 0.82988985 0.76899307
0.21576688 0.38401750 0.20769821
0.04315846 0.46527879 0.61214732
0.08317168 0.91336927 0.04451402
0.14650419 0.98955103 0.65244399
0.73636310 0.42455622 0.16877228
0.64660184 0.34848224 0.50323554
0.61236540 0.98982607 0.09533725
0.63182799 0.81799665 0.51071726
0.32986158 0.23230666 0.07978665
0.20211014 0.45772677 0.64126369
0.20395104 0.88514623 0.21337723
0.03080698 0.79244232 0.65013148
0.64294703 0.55386552 0.26875086
0.74328717 0.32309255 0.59788487
0.74086985 0.83696606 0.08810269
0.78287028 0.11530182 0.70871050
0.48520777 0.17734240 0.15727679
0.45238756 0.17598836 0.67005458
0.33530892 0.50631900 0.14521370
0.15661479 0.58081034 0.74462862
0.84269539 0.06143892 0.25932417
0.61189085 0.17893033 0.46996581
0.92067090 0.49091880 0.08086139
0.87094599 0.50075591 0.62048204
0.33752072 0.91953834 0.21727525
0.30540820 0.12042533 0.71907184
0.35072225 0.63561056 0.00844892
0.48112165 0.64474151 0.65609786
0.78840116 0.00819330 0.14877293
0.90677972 0.09996066 0.52253253
0.88108537 0.54195061 0.21096972
0.84297153 0.75146137 0.60681904
0.43512771 0.27898091 0.31418485
0.47048789 0.05306667 0.60493798
0.43930483 0.63094242 0.26572511
0.35857484 0.68883867 0.51070703
0.98054727 0.14468688 0.14636831
0.96479499 0.21239052 0.63787752
0.79584867 0.70649514 0.11816793
0.76127949 0.58754626 0.66413147
0.14619771 0.98638415 0.17678301
0.29448798 0.00577704 0.64283734
0.27518235 0.70331909 0.10841157
0.36058392 0.42979219 0.74195262
0.88659800 0.21531625 0.17125542
0.81950638 0.96561222 0.66441867
0.84436470 0.65250410 0.99683092
0.94438733 0.63217099 0.55527828
0.33993908 0.15165058 0.98321581
0.27228577 0.14655574 0.52085108
0.46939208 0.60302022 0.11439463
0.40221242 0.52698411 0.56735489
0.77400442 0.14956650 0.10096138
0.75515209 0.14920211 0.56209076
0.06257817 0.60669079 0.99543175
0.95815761 0.63950071 0.70774395
0.45149198 0.03025434 0.10927298
0.40092024 0.09083497 0.49413078
0.27205310 0.61524636 0.22622878
0.30101467 0.74962973 0.59711974
0.87277799 0.14566337 0.02753323
0.09535448 0.34699119 0.73965127
0.16777085 0.74629955 0.40731808
0.78321765 0.63169969 0.53631184
0.60995177 0.35996706 0.23669990
0.26438991 0.44464639 0.83975266
0.29005843 0.84496125 0.45519493
0.35165020 0.78115382 0.96803989
0.76810282 0.39801050 0.32434684
0.12478105 0.26336205 0.91676716
0.84114613 0.90610089 0.26900424
0.97778757 0.91055415 0.90956966
0.34646058 0.40097813 0.25986070
0.42176093 0.26949819 0.84217123
0.39328258 0.99326623 0.39137242
0.33640245 0.98909811 0.80233160
0.88856406 0.49942971 0.37060669
0.89875134 0.34856110 0.74327675
0.91032477 0.96177549 0.40233972
0.91182701 0.76424221 0.85691573
0.29540867 0.29361054 0.38721456
0.29567109 0.31800181 0.92085156
0.43991661 0.88325541 0.46774490
0.43103933 0.69281178 0.81220847
0.00595137 0.36837245 0.37601895
0.92829728 0.22565518 0.83739951
0.79085122 0.85049908 0.47998303
0.85001373 0.79993496 0.97688603
0.48351108 0.43814427 0.40846936
0.44754878 0.37532032 0.98204983
0.26166263 0.93455067 0.34120279
0.40179906 0.73466613 0.16559884
0.81970332 0.30391861 0.47376729
0.92705138 0.49510610 0.90047888
0.74051343 0.88912594 0.34304004
0.75312788 0.91349223 0.85177466
0.31015237 0.27194633 0.57981874
0.40095628 0.49858040 0.89773853
0.46548657 0.87311190 0.30041362
0.51642350 0.88328461 0.08125454
0.88026122 0.38908312 0.25628921
0.76538726 0.15129315 0.89967123
0.96448312 0.82652950 0.34086001
0.91795561 0.01509560 0.06563170
0.17125433 0.49986570 0.14439947
0.50558621 0.39953373 0.86025789
0.38395837 0.76456318 0.37071682
0.40652569 0.95986888 0.95734682
0.91839717 0.25798139 0.34670982
0.82357816 0.59631365 0.75092201
0.88339254 0.66176544 0.23119003
0.67179683 0.03772186 0.69214796
0.36490366 0.62944358 0.62551869
0.11459282 0.62375560 0.88548425
0.61069062 0.84985865 0.62871197
0.85883922 0.35336082 0.86696942
0.38853331 0.12205154 0.11428270
0.38764065 0.36989976 0.36847287
0.62393290 0.62094361 0.37320520
0.13672247 0.37952869 0.11645049
0.12306345 0.36472902 0.60792032
0.62736559 0.64184173 0.88963329
0.86760413 0.86819321 0.87852042
0.11001948 0.12618366 0.37068035
0.62657347 0.12987520 0.89689066
0.63496988 0.38825118 0.12389951
0.84522347 0.11486348 0.61875181
0.35271925 0.87393193 0.88052450
0.00536563 0.99589437 0.99068585
0.98958440 0.98026640 0.49542810
0.00348883 0.51389453 0.98671403
0.00755125 0.47723323 0.50652568
0.51300913 0.98310808 0.01490761
0.47483222 0.00218716 0.48330673
0.50618220 0.49769860 0.96826990
0.52237601 0.50305290 0.49002845
0.98411398 0.25250261 0.25065696
0.99701854 0.26741481 0.75125629
0.98974574 0.73719989 0.25481113
0.99436411 0.75785506 0.76795179
0.51949552 0.26412454 0.24308541
0.49863040 0.25692825 0.75528185
0.48624245 0.74176245 0.26219618
0.48245503 0.76539651 0.73504172
0.24924366 0.98943339 0.23419558
0.24177995 0.01505011 0.74291427
0.23816824 0.49497516 0.24145174
0.24261100 0.50589115 0.74424401
0.74693133 0.99421238 0.25361366
0.75607688 0.00070794 0.75483181
0.76962770 0.50321246 0.25097824
0.73861501 0.50402488 0.74399420
0.25816375 0.23764199 0.99741309
0.24379167 0.24963705 0.48766799
0.24307240 0.75676219 0.00941287
0.24284998 0.74798516 0.50435717
0.77486193 0.22508787 0.99151224
0.72800609 0.24482535 0.50397821
0.75771398 0.73785285 0.01253743
0.74360031 0.74227292 0.51357380
0.43944602 0.20333048 0.42511690
0.44467884 0.20732640 0.95183036
0.43956354 0.68407393 0.43202150
0.43893401 0.69021333 0.94135990
0.92813467 0.16562916 0.43116006
0.95740816 0.17720330 0.95416854
0.92626587 0.71156307 0.47633303
0.95555528 0.70227151 0.94553406
0.21970684 0.06487855 0.06537986
0.18877694 0.06259613 0.54983000
0.16996468 0.54205211 0.03735862
0.16979270 0.55853620 0.54971775
0.70141122 0.05857033 0.06817684
0.67296445 0.05876658 0.56964543
0.70065796 0.53567446 0.06731291
0.70881142 0.54724375 0.55146696
0.30082799 0.06757701 0.42723549
0.31326676 0.05391630 0.92496268
0.32032086 0.57275180 0.45784536
0.30502345 0.56012487 0.93128835
0.79297307 0.06200604 0.44262956
0.80398823 0.05895650 0.93589720
0.82716585 0.55869328 0.45202121
0.81275444 0.54235249 0.94011837
0.06919204 0.20086327 0.07008022
0.03206506 0.16569492 0.55118879
0.04496197 0.69978480 0.06729687
0.05010966 0.70800779 0.57812340
0.56926356 0.20164982 0.07599166
0.53162186 0.18107278 0.55654489
0.56013945 0.68770356 0.06119573
0.54760695 0.68099013 0.55991602
0.13969059 0.15187297 0.87611820
0.12341385 0.62793909 0.38131917
0.62708669 0.12180298 0.36250868
0.43797242 0.43858262 0.18503065
0.44438478 0.46910391 0.67560692
0.45124341 0.93323135 0.19041583
0.46785418 0.95345724 0.69588956
0.95073321 0.45239389 0.19352283
0.95526926 0.43912969 0.67573342
0.92752431 0.93488328 0.19432816
0.93099194 0.95873092 0.70907857
0.19958091 0.31203037 0.30973529
0.21488893 0.32948088 0.81840046
0.18544645 0.80239502 0.30420146
0.18521870 0.80336215 0.81854895
0.68817380 0.31290808 0.30129217
0.66977438 0.30120021 0.79519419
0.67032614 0.79811123 0.30822033
0.67757106 0.81071927 0.80249474
0.29499205 0.31098328 0.18227816
0.30477904 0.33383412 0.67187428
0.30467676 0.81181801 0.19180314
0.29910154 0.80310852 0.70032505
0.81033582 0.31154876 0.19069899
0.80006107 0.32182250 0.69690421
0.80279460 0.78205020 0.20381820
0.79520810 0.81264257 0.69477134
0.06763416 0.45342561 0.32317338
0.06281665 0.44850130 0.79241639
0.04090462 0.93497347 0.32225010
0.05474446 0.97390610 0.82748939
0.56760490 0.44830641 0.30062864
0.56432091 0.45433858 0.78925791
0.57455716 0.95398678 0.30436213
0.59272524 0.94202825 0.80356300
0.13322957 0.87600795 0.13093846
0.10368279 0.88975535 0.64132513
0.62454178 0.37201007 0.62737753
0.63256572 0.86670554 0.10861399
0.18806786 0.18144449 0.20143531
0.18491173 0.21878191 0.69733235
0.19598405 0.68252291 0.19578604
0.19117600 0.68510563 0.70014437
0.69966185 0.19127070 0.18984808
0.69541470 0.18728267 0.68976228
0.67052218 0.67206305 0.20985113
0.68340409 0.69081724 0.70426211
0.44232652 0.05653846 0.30426784
0.45102568 0.03168691 0.83531019
0.42316912 0.53144609 0.32864845
0.43883963 0.57085417 0.80637622
0.93814253 0.06397129 0.32311720
0.94296412 0.09776320 0.79445006
0.95111995 0.57223029 0.30681573
0.94015898 0.55998320 0.79580887
0.05223072 0.05472231 0.20359344
0.06971678 0.06861959 0.68919036
0.07532996 0.55901124 0.19365944
0.04508580 0.56948748 0.68536703
0.54690942 0.06924310 0.18704601
0.55955887 0.09162872 0.71650805
0.52976721 0.57905985 0.21359674
0.57144457 0.58826430 0.70630128
0.33115651 0.19743220 0.29970128
0.31653225 0.20806932 0.78457748
0.30820071 0.69332385 0.30518060
0.30880722 0.70847294 0.83254208
0.81457505 0.19979670 0.31359554
0.80378912 0.19501710 0.81048947
0.77096202 0.66524236 0.33222866
0.80640352 0.69405203 0.81871333
0.36462311 0.11360272 0.60577909
0.35963049 0.63261972 0.12425208
0.86533637 0.10975493 0.12897747
0.86590644 0.61870881 0.11908829
0.87149548 0.61542581 0.63217893
0.20829532 0.45160527 0.42163977
0.19715878 0.43054353 0.93735613
0.18565211 0.94925104 0.43196189
0.18222444 0.95738486 0.94870350
0.69776666 0.44012372 0.43106600
0.69426480 0.42117643 0.94843395
0.67963872 0.93947042 0.44423581
0.68030016 0.95762733 0.94681286
0.44312623 0.29867494 0.07590125
0.43767002 0.31683909 0.54860932
0.43091564 0.79401417 0.05977030
0.42150818 0.78522138 0.56116102
0.93410292 0.29038185 0.07911319
0.92510703 0.29578604 0.55138361
0.93264868 0.81987549 0.06619942
0.94601896 0.83436340 0.56549636
0.03966251 0.27531919 0.42249816
0.03551596 0.32310281 0.96318186
0.05630848 0.79731937 0.44099632
0.06046299 0.82357835 0.96550272
0.56134992 0.30145838 0.43350464
0.55821649 0.32571424 0.95461868
0.54010061 0.80234595 0.44321818
0.56209716 0.80126931 0.94144302
0.30183045 0.44521298 0.05677590
0.29179499 0.46353743 0.57178550
0.31676537 0.93864621 0.04791252
0.31253699 0.94338125 0.53906511
0.82403046 0.41974735 0.05301127
0.80737720 0.42027954 0.54574816
0.80106592 0.93221641 0.04903973
0.79264056 0.93570172 0.55344109
0.38349024 0.38448782 0.85866597
0.37086515 0.88472692 0.37654086
0.88829431 0.37150797 0.37575728
0.85217291 0.86015910 0.37628801
0.25638684 0.00429148 0.99680932
0.24844436 0.00379083 0.48591753
0.24898273 0.49709076 0.99507112
0.24611103 0.51088549 0.49646479
0.75206914 0.00588321 0.00191009
0.74043754 0.00172009 0.50828835
0.75540509 0.47927971 0.00044222
0.76115417 0.48799241 0.49003669
0.25113896 0.24541021 0.25065196
0.25893893 0.27898900 0.74027537
0.24609848 0.75117179 0.25200221
0.24518490 0.74558050 0.75888505
0.75012544 0.25629223 0.24926230
0.74341014 0.25002401 0.74849660
0.73422358 0.73542073 0.26135271
0.74898598 0.75186521 0.75270808
0.98401001 0.99557036 0.25805258
0.99995345 0.01963145 0.74806551
0.01057354 0.51006430 0.25603374
0.99580692 0.50243545 0.74054368
0.50578831 0.00115841 0.24897323
0.52193074 0.01027221 0.76223481
0.48720510 0.49940332 0.24961992
0.50207567 0.52139382 0.74294225
0.99964287 0.25165655 0.01784072
0.97905896 0.23305115 0.48825251
0.99242803 0.76212922 0.01320827
0.99880247 0.76594306 0.51508047
0.51133766 0.25414277 0.01594213
0.48928121 0.25229488 0.49631506
0.50219691 0.74456308 0.00346156
0.48873878 0.74208490 0.50246902
Direct configuration=      3
0.03375227 0.13826868 0.26590353
0.03988942 0.16947133 0.77308482
0.14469722 0.65617135 0.50712395
0.08701499 0.73308228 0.87498371
0.70765366 0.03160014 0.36172316
0.60705675 0.21356163 0.76291077
0.75540044 0.60118837 0.18234364
0.77803131 0.45081949 0.82694375
0.16331437 0.21310251 0.40986316
0.18165837 0.01561778 0.84667977
0.30622065 0.45605138 0.36390773
0.29173400 0.55188252 0.65194401
0.63422031 0.23310348 0.29124213
0.71201448 0.31210176 0.94854542
0.54036544 0.38896121 0.53236863
0.60661565 0.75448994 0.80051297
0.13775181 0.98275775 0.31630678
0.15948445 0.11383044 0.75433052
0.17062712 0.53964195 0.31962713
0.32356504 0.58616022 0.80613471
0.58051523 0.02689877 0.40460086
0.53466514 0.06678248 0.93348625
0.66064454 0.71635147 0.48213965
0.52396247 0.59678492 0.93441100
0.01197338 0.10375402 0.41439999
0.14942840 0.15633547 0.97059886
0.99792950 0.65198772 0.37458778
0.23044104 0.70188687 0.90607838
0.66445775 0.06587486 0.23757025
0.65477002 0.03737888 0.82868365
0.53487455 0.58781010 0.45803510
0.75500131 0.70961171 0.90480845
0.22429995 0.10502238 0.31890846
0.04197373 0.07876709 0.88947225
0.23610349 0.66077890 0.39907253
0.06954094 0.88563673 0.74921302
0.74474677 0.17015325 0.41423576
0.65755869 0.15655849 0.01655250
0.80567572 0.75604603 0.40839873
0.65565591 0.67233643 0.02163862
0.28693109 0.07855443 0.16100899
0.24257280 0.17265791 0.87751424
0.11349875 0.67001703 0.27978473
0.97486064 0.66115395 0.16512430
0.51689487 0.14842848 0.35469174
0.85233069 0.02069106 0.82931218
0.75211424 0.56812860 0.35584199
0.65892363 0.57949881 0.78011525
0.14814730 0.50953702 0.85158765
0.09178358 0.54021694 0.44081588
0.24174772 0.85652515 0.91940366
0.09397052 0.91938774 0.49550502
0.72896676 0.29539660 0.10313499
0.67348872 0.39311142 0.72891896
0.56897893 0.70168700 0.34952390
0.72372200 0.89709441 0.70720251
0.19738742 0.27801552 0.09969119
0.16197908 0.26117033 0.58969791
0.22297072 0.87193798 0.06259212
0.21883179 0.91079980 0.71959646
0.88126984 0.33185281 0.98854235
0.61897513 0.26060119 0.56390112
0.65766018 0.90940977 0.22042728
0.55147870 0.86058053 0.70404779
0.08730605 0.42028497 0.01994971
0.14221111 0.36361867 0.48255525
0.13835780 0.78066032 0.05953862
0.19059713 0.80906207 0.57371002
0.61680467 0.44873493 0.01665025
0.53776440 0.35554745 0.69639736