Li192 P32 S160 Cl32
1.0
20.312311 0.000190 -0.000113
0.000190 20.312339 -0.000033
-0.000113 -0.000033 20.312424
Li Cl S P
192 32 160 32
Direct configuration=      1
0.02054392 0.14577329 0.31266329
0.03868348 0.15527725 0.79500052
0.14504923 0.65408792 0.50336293
0.08615133 0.73702226 0.85080584
0.71863819 0.04010019 0.37111326
0.59908103 0.21305678 0.79208710
0.76098062 0.59940996 0.17042593
0.73005633 0.52972871 0.86648318
0.15007787 0.23271616 0.41697694
0.16668791 0.01224072 0.85280696
0.27380830 0.47618229 0.35903939
0.27986190 0.54547004 0.64496265
0.59547997 0.22732598 0.33285971
0.74584467 0.33293622 0.91168774
0.50820907 0.39951732 0.57369156
0.59013779 0.73384812 0.83444172
0.13007133 0.01409896 0.30180170
0.16494481 0.10470195 0.76077961
0.16017702 0.56827628 0.28423616
0.29700843 0.57782132 0.80707254
0.60677744 0.04688258 0.47585251
0.51839604 0.09894549 0.93203804
0.66890717 0.66788023 0.48386353
0.52764326 0.57615946 0.89924089
0.03846392 0.10347557 0.46723454
0.15664070 0.14123815 0.99435457
0.00922088 0.66073265 0.36469860
0.22081355 0.65709836 0.94132918
0.65717567 0.08794603 0.26156907
0.67026769 0.02470925 0.84598415
0.51654569 0.57096663 0.40339792
0.73193520 0.72847738 0.90674840
0.24528838 0.08843514 0.33353862
0.02399094 0.09085170 0.92491526
0.24155840 0.65567784 0.40676467
0.08523216 0.85621247 0.75009893
0.73928567 0.17893292 0.41748629
0.63802576 0.22496696 0.98238457
0.82510691 0.76073151 0.40845273
0.68269576 0.68303695 0.06258214
0.27099162 0.08349745 0.17142544
0.24596868 0.15132155 0.89373153
0.11127748 0.71123657 0.28359112
0.99078255 0.64604411 0.14433857
0.51267790 0.10234171 0.38524709
0.85044109 0.00492012 0.83871948
0.74460135 0.58795788 0.34416963
0.65395007 0.58255448 0.76037249
0.09573322 0.51144696 0.89752635
0.08606965 0.52442790 0.41447969
0.24737555 0.83219469 0.91285744
0.11243138 0.89570118 0.51901766
0.72499631 0.31336440 0.09467933
0.68507868 0.41052990 0.72727897
0.58958310 0.73172137 0.33626170
0.73901083 0.90773870 0.67685341
0.15952025 0.26221534 0.07849983
0.14902313 0.24998431 0.58296671
0.24967044 0.84802468 0.07914735
0.22475748 0.89211154 0.72003289
0.85091989 0.32538556 0.00091932
0.63118809 0.25957180 0.60578714
0.65721921 0.91912953 0.22744277
0.55083324 0.86624932 0.70672343
0.09307740 0.41298960 0.01848015
0.21372073 0.35978316 0.51977889
0.14048420 0.78041866 0.04120588
0.16343708 0.77235419 0.60003422
0.59173936 0.41281708 0.01256969
0.53954321 0.36192863 0.71069173
0.59386703 0.77324385 0.15962059
0.70983866 0.76942440 0.61923430
0.01447473 0.34154697 0.16657328
0.92599480 0.40812915 0.48540178
0.03175531 0.86843357 0.16900416
0.01934721 0.96077818 0.61991420
0.48534321 0.33427518 0.15071740
0.62172281 0.49454100 0.60956834
0.65575210 0.84365841 0.00624644
0.40403729 0.84515191 0.77141237
0.20390552 0.38279988 0.22843041
0.08254488 0.47801739 0.58593780
0.09773650 0.92569717 0.02088189
0.15424268 0.99151578 0.66313700
0.72121990 0.45659323 0.15560863
0.64534145 0.35245218 0.49948372
0.60527554 0.99347896 0.09071408
0.65994572 0.83366738 0.50582786
0.29639264 0.22977535 0.10464679
0.23257117 0.40638158 0.66834813
0.20451905 0.88137127 0.21397711
0.02163374 0.80151222 0.64553334
0.63725404 0.52676577 0.28131065
0.73720876 0.34752980 0.59731794
0.74024371 0.84711542 0.10701122
0.77735117 0.11709440 0.73702534
0.48643994 0.16074567 0.15620219
0.46001198 0.17822572 0.66039970
0.33615233 0.51032017 0.14310214
0.14648263 0.52288630 0.74391231
0.83772717 0.08748722 0.24762904
0.62382280 0.20512805 0.47185567
0.90011055 0.51959519 0.08261097
0.87166589 0.50489454 0.63047890
0.35612630 0.96579798 0.26269250
0.29501550 0.12394996 0.70853558
0.35232040 0.64240271 0.01920806
0.48405341 0.64519400 0.62445824
0.77425045 0.02067491 0.14640126
0.88853962 0.05715489 0.54711863
0.86866525 0.54714206 0.22172694
0.85040082 0.73976322 0.60660151
0.41501904 0.25936644 0.31885227
0.44580950 0.03474668 0.62135955
0.44772261 0.63520689 0.24052906
0.35586218 0.68854148 0.49655126
0.98568497 0.13308756 0.14231946
0.95368685 0.22443550 0.63650283
0.84345131 0.74411922 0.10454731
0.75801093 0.59161700 0.65818323
0.15457831 0.98836846 0.15323771
0.29476038 0.01975386 0.63181224
0.27266790 0.70003439 0.11398423
0.35561107 0.41257707 0.75476709
0.88891204 0.23132870 0.16131363
0.84552906 0.00953939 0.68131395
0.83899503 0.65647238 0.01182383
0.96393919 0.61053290 0.55278145
0.34371700 0.15795240 0.99736777
0.26408102 0.13651396 0.52948980
0.48264372 0.59702439 0.10570885
0.38817771 0.52207758 0.52640063
0.75641101 0.16393561 0.09906443
0.75556104 0.16882838 0.58711006
0.02669195 0.62163200 0.96304200
0.96912929 0.64557687 0.70716099
0.41137826 0.01703837 0.09208120
0.40125525 0.10425986 0.50158331
0.30002131 0.60237730 0.23323714
0.29059788 0.71519921 0.61456660
0.85837305 0.15929635 0.01346180
0.08375486 0.33903733 0.73612191
0.15458240 0.75701487 0.41926865
0.80952572 0.64246963 0.52820555
0.60340899 0.34505359 0.23709737
0.25302198 0.41537756 0.83795287
0.29313889 0.84118540 0.47458808
0.36551405 0.78094258 0.96193716
0.75483272 0.40696717 0.34398739
0.15168762 0.24654698 0.90287995
0.84468158 0.91826537 0.26658792
0.98510488 0.91815448 0.91382892
0.34677678 0.41097722 0.25437410
0.40338375 0.26881106 0.83505096
0.40298866 0.99297028 0.39484361
0.33358675 0.99660935 0.81781423
0.87180877 0.49136131 0.36154618
0.83235690 0.42407918 0.76867735
0.89897703 0.98008464 0.41096240
0.90705207 0.77210289 0.83602009
0.29034652 0.27269777 0.39829205
0.28598258 0.33435097 0.95869500
0.45391661 0.87439074 0.45581371
0.42694055 0.69013177 0.81896489
0.99253676 0.36774870 0.35382555
0.91444389 0.27031062 0.83893575
0.83367476 0.85588010 0.49856986
0.84201046 0.84186488 0.98924478
0.47685456 0.40226230 0.40128353
0.40723791 0.39941962 0.98913412
0.26358722 0.90859028 0.34114666
0.40966521 0.74216372 0.15144729
0.81658384 0.32024864 0.47052320
0.91655619 0.48241914 0.90596208
0.74931469 0.90268018 0.35582111
0.75749878 0.90251239 0.83862485
0.32817146 0.24542962 0.58282435
0.39439232 0.49316505 0.89088931
0.46978284 0.87038654 0.28382112
0.51382113 0.89332590 0.08748328
0.85322187 0.40071675 0.25312157
0.74613838 0.16495233 0.91197740
0.96988574 0.84116506 0.35162860
0.91087691 0.01384673 0.07969515
0.16766214 0.49685576 0.15254333
0.49201202 0.39070376 0.87512483
0.40440768 0.76634854 0.35046605
0.40649949 0.96011325 0.94538271
0.89872553 0.25977695 0.33641312
0.84206303 0.58933953 0.75602690
0.88797547 0.70501374 0.23432891
0.64473905 0.02146163 0.69664045
0.37066283 0.62099870 0.60136376
0.11730316 0.62794311 0.88648144
0.64082990 0.86426455 0.62502430
0.86253422 0.37331757 0.88489126
0.37396255 0.12684883 0.11357040
0.37033043 0.36386249 0.36027383
0.62913540 0.62000088 0.37089074
0.12397758 0.37879118 0.12967430
0.13099889 0.37107391 0.62138012
0.63249230 0.62304585 0.86885598
0.87295735 0.88245732 0.87977245
0.12190175 0.11510682 0.37446390
0.63043597 0.13618943 0.88387191
0.62774648 0.37741501 0.12566651
0.85644740 0.12234448 0.63990092
0.35959975 0.87151985 0.87787767
0.00319195 0.99769196 0.99934117
0.98536038 0.00572860 0.51087701
0.00764540 0.50471719 0.98279278
0.00154373 0.50398634 0.50223777
0.49896746 0.99624469 0.01602194
0.48646909 0.01999494 0.47823657
0.49345924 0.48165196 0.96871465
0.49185912 0.48513119 0.48797804
0.97786368 0.24818665 0.24335000
0.99544892 0.25406350 0.74783645
0.99636318 0.74069127 0.27054745
0.00519447 0.75714198 0.75918722
0.50993544 0.25978895 0.24045149
0.49747653 0.25885816 0.74959804
0.49084377 0.75327374 0.24928438
0.49548246 0.76620043 0.76547910
0.23833382 0.99383565 0.25304366
0.24235210 0.01192247 0.74286952
0.25228050 0.49277419 0.24163335
0.25823337 0.49009796 0.74591292
0.74813561 0.99785841 0.26299572
0.75577702 0.00000417 0.75928822
0.76239478 0.50184931 0.25913375
0.75130744 0.51154813 0.75013082
0.24232466 0.22870108 0.99322762
0.23554829 0.24765886 0.50127316
0.25809051 0.75029676 0.00622379
0.23943880 0.73526568 0.50437624
0.75686864 0.24590308 0.00184801
0.72159663 0.25729742 0.51432022
0.76015118 0.75775427 0.01758026
0.75774881 0.75237805 0.51270261
0.43500416 0.19322672 0.42637531
0.44017827 0.19410120 0.92929163
0.45423606 0.67580127 0.42040772
0.44959935 0.67577639 0.94763765
0.95148730 0.18295660 0.41972326
0.94927742 0.19710558 0.94141697
0.93525239 0.69278622 0.45659445
0.93563986 0.70298493 0.94132154
0.20658052 0.05494958 0.06349317
0.19551556 0.04139010 0.55683123
0.19655260 0.56110217 0.05358936
0.18051868 0.55820151 0.56596294
0.69698059 0.06230402 0.05796916
0.68370239 0.06340010 0.57401082
0.69917039 0.55026116 0.07424846
0.70312269 0.56372652 0.55335638
0.30432618 0.05639755 0.43646048
0.31364593 0.05344823 0.93471290
0.30313417 0.55948288 0.44586257
0.30564909 0.56222096 0.93528793
0.80489440 0.06558812 0.46004891
0.81242250 0.06421544 0.94058925
0.81541777 0.55965093 0.43980029
0.81885990 0.54939753 0.95559189
0.06217707 0.18590035 0.06301707
0.04263800 0.19143850 0.55392672
0.05375550 0.69536744 0.05513812
0.05208144 0.70454097 0.57155474
0.54730783 0.18893418 0.05323105
0.53955540 0.19059737 0.55517541
0.55903700 0.68582805 0.07290231
0.56360269 0.68615179 0.54632000
0.12978188 0.12792593 0.87441177
0.12536729 0.63792345 0.38220195
0.63163119 0.12482213 0.38312910
0.43831574 0.44180649 0.18097542
0.44678915 0.44630461 0.68178192
0.44642800 0.94271301 0.18414328
0.44476941 0.94119752 0.70304351
0.94823898 0.45257828 0.19096998
0.93593670 0.43244604 0.70090405
0.93374809 0.94590567 0.18354228
0.94394186 0.94555823 0.71154888
0.19173583 0.29557142 0.31168656
0.18791475 0.31526827 0.80401043
0.19320471 0.80498132 0.30952120
0.18460566 0.80682209 0.80848144
0.68735497 0.30665549 0.31380796
0.67601886 0.31261194 0.81275213
0.67957757 0.81204049 0.30271338
0.69157718 0.80212306 0.81791994
0.30416832 0.31336060 0.19360753
0.30768086 0.31479920 0.68785803
0.30599412 0.80242138 0.19157229
0.30964169 0.80619725 0.70059114
0.80067341 0.30799462 0.19301153
0.79574553 0.32699029 0.69999162
0.81035426 0.80785566 0.20047570
0.80449819 0.80597874 0.69837756
0.06749115 0.45095570 0.30992017
0.06632173 0.44626166 0.79978069
0.04730035 0.92478016 0.29705418
0.06414220 0.94770147 0.82337258
0.55462745 0.43668283 0.30370779
0.56565647 0.44935444 0.79598689
0.56138706 0.94768455 0.30230168
0.58598906 0.95421722 0.78496017
0.13837425 0.87534025 0.11805777
0.11448687 0.87953804 0.63760945
0.61990692 0.37838628 0.61928953
0.62673491 0.87875822 0.11690526
0.20495620 0.18805069 0.18077024
0.19296145 0.19618046 0.68793482
0.19887104 0.67606389 0.20711957
0.20207402 0.68555280 0.69324189
0.68443059 0.19308067 0.19508864
0.68960894 0.19608063 0.69940296
0.68439463 0.69278736 0.19301812
0.69089287 0.68599491 0.70240605
0.43836533 0.06028993 0.29526086
0.44934781 0.03832041 0.83762707
0.42807277 0.53974816 0.31395730
0.44456683 0.56222528 0.80453775
0.93646419 0.05039778 0.31499583
0.95216813 0.06863518 0.82287095
0.94778499 0.56718588 0.30846394
0.94715610 0.56061130 0.80943897
0.05705102 0.05934846 0.20698733
0.06023262 0.06246600 0.70018080
0.06902821 0.56693602 0.19615923
0.04758904 0.55483448 0.67969468
0.56047948 0.06508844 0.18444324
0.53332902 0.07894082 0.69664841
0.54727695 0.56552599 0.20383010
0.55765816 0.56910012 0.68419066
0.31453257 0.18831522 0.30559329
0.30877906 0.19829154 0.80232258
0.31791679 0.69173355 0.31639945
0.30272499 0.69639092 0.82792140
0.80411360 0.19037969 0.31218461
0.80641549 0.20714999 0.81286602
0.79786258 0.69179998 0.31212062
0.81265604 0.69248165 0.81919042
0.36231804 0.12296421 0.61068640
0.37339711 0.62872549 0.13794590
0.86667851 0.11846954 0.12825652
0.87397863 0.62942880 0.13345850
0.87232606 0.62304723 0.63387266
0.18402079 0.44825788 0.44091578
0.18866575 0.44079295 0.93884449
0.20098107 0.92426625 0.44110094
0.19467788 0.93914664 0.94574401
0.69034600 0.44828977 0.43622041
0.69490755 0.44321270 0.94908289
0.68771810 0.95023744 0.45645808
0.69458476 0.94685363 0.93816186
0.42367925 0.30058569 0.05462228
0.42775555 0.31354074 0.54111401
0.44483695 0.80212342 0.05036683
0.42994027 0.78587621 0.53680770
0.94557504 0.30173242 0.07055442
0.92037017 0.29687020 0.53904642
0.93856472 0.81577587 0.06598704
0.93549939 0.81844473 0.56496875
0.05459278 0.31283024 0.44099583
0.06504121 0.31323996 0.95677026
0.04975401 0.81515955 0.44583587
0.05436594 0.81703271 0.94711709
0.55315420 0.30361959 0.43296660
0.55442218 0.31191247 0.94760101
0.55674592 0.80490179 0.43212123
0.56938674 0.78998006 0.94154410
0.30793987 0.43679628 0.04838054
0.29708803 0.44636883 0.56233170
0.32573564 0.93911556 0.04820524
0.32479758 0.93626774 0.54913935
0.80994402 0.42954617 0.07011721
0.81266971 0.43486897 0.54857736
0.81127824 0.94411715 0.05574259
0.80807579 0.95026536 0.57584519
0.37078433 0.37994101 0.87376716
0.37896585 0.88245977 0.36264665
0.87450013 0.37526927 0.37066152
0.85971648 0.87351446 0.38167271
0.25854962 0.99649611 0.99969243
0.25673325 0.98799003 0.49671034
0.24958601 0.50001491 0.99587150
0.23902550 0.50499841 0.50337150
0.75317506 0.00433723 0.99691251
0.74572085 0.00654201 0.51870651
0.75554005 0.49353464 0.01268385
0.75464756 0.49857902 0.49357320
0.25279602 0.24543211 0.24896165
0.24831115 0.25761270 0.74636536
0.25525154 0.74417935 0.25672539
0.24997961 0.74634967 0.75655003
0.74441933 0.24776881 0.25348026
0.74312567 0.26276575 0.75600762
0.74221210 0.75190323 0.25170837
0.75099351 0.74495085 0.75825130
0.99162998 0.99448778 0.25054156
0.00516364 0.00567904 0.76411842
0.00907508 0.50833374 0.25241741
0.99639220 0.49751242 0.74683122
0.50475003 0.00417053 0.24281749
0.50233590 0.00435692 0.75894183
0.49115056 0.49488745 0.24971227
0.50257761 0.50566821 0.74096771
0.00635419 0.24974780 0.00714477
0.99212899 0.24828288 0.48611275
0.99278063 0.75856673 0.00420111
0.99291396 0.75825811 0.50744899
0.49025784 0.24985587 0.99735025
0.48746886 0.25104479 0.49179664
0.50942550 0.73941823 0.00245855
0.50230369 0.73783097 0.48603699
Direct configuration=      2
0.02484419 0.13500704 0.30672061
0.04065019 0.15901235 0.79803655
0.14617456 0.65735994 0.49884502
0.08383397 0.73717854 0.84749931
0.73326264 0.05733813 0.36680271
0.59566017 0.20414906 0.78728210
0.75755557 0.58736142 0.16613285
0.74849379 0.50514640 0.85435752
0.14958461 0.23312109 0.41502648
0.17297057 0.01492043 0.85124730
0.29122033 0.48021822 0.35603355
0.26178822 0.55464303 0.64675209
0.58619832 0.23329472 0.34469319
0.74725258 0.32443963 0.91285108
0.51547359 0.40594562 0.57565093
0.58666591 0.74112312 0.83471994
0.13310873 0.01553357 0.30303399
0.16548375 0.10732051 0.76133044
0.15483561 0.54310333 0.29818532
0.30802500 0.57269785 0.79965307
0.59571719 0.01243103 0.40858498
0.52148274 0.09177217 0.93321438
0.67078413 0.67208245 0.48293099
0.53619396 0.59644692 0.93834085
0.05208747 0.09928577 0.47071558
0.16017670 0.14534118 0.99782931
0.00883403 0.66240665 0.36884189
0.23170345 0.66687819 0.92077294
0.65835819 0.09007924 0.25848692
0.67686187 0.02353083 0.84751300
0.53662148 0.59174825 0.44977102
0.72326736 0.71816690 0.90372441
0.25049471 0.08707042 0.32605914
0.02993944 0.08225545 0.92084832
0.24212658 0.65560270 0.40220035
0.05621414 0.87133185 0.74140229
0.71775483 0.21267765 0.39897552
0.63850284 0.21932883 0.98149557
0.82628270 0.76086102 0.40883326
0.67652952 0.66905469 0.04593945
0.27335345 0.08347020 0.17022627
0.24866879 0.15440723 0.89315091
0.10159676 0.67988247 0.27048967
0.98777515 0.64196987 0.13231920
0.50916258 0.11078885 0.38406536
0.85344390 0.00420084 0.83532426
0.74508794 0.58584531 0.34168331
0.64839989 0.58787987 0.76572859
0.14778699 0.50071225 0.83967197
0.08976745 0.52534068 0.42828223
0.24823908 0.83270346 0.91059745
0.11771541 0.89337651 0.51658294
0.71216174 0.28996590 0.10486919
0.70046340 0.39945515 0.72767247
0.58622014 0.73024271 0.34031129
0.73670726 0.91089390 0.67397693
0.17920704 0.26283798 0.08941316
0.14598109 0.25572462 0.58383315
0.24878754 0.84963818 0.08538419
0.21448892 0.89249648 0.71880051
0.84696233 0.32780024 0.00769941
0.63326461 0.25912804 0.60365008
0.66242754 0.92596669 0.22479798
0.55282643 0.86989391 0.70825555
0.09031499 0.41330170 0.01547281
0.22228460 0.36469491 0.51396011
0.14219361 0.77671665 0.04004669
0.16279495 0.77267269 0.59396261
0.59688389 0.41067892 0.01169845
0.54634941 0.36692962 0.71174428
0.61115272 0.78675510 0.18718240
0.70795958 0.77442660 0.61948149
0.03734328 0.29466479 0.15339130
0.91946017 0.40633468 0.49444841
0.02180387 0.86213171 0.13851373
0.00260960 0.93171296 0.60197833
0.49721040 0.33400216 0.14823805
0.64779830 0.49447145 0.64231150
0.65787679 0.83603521 0.00680771
0.40403849 0.84705548 0.76939696
0.20176521 0.38180846 0.22639051
0.04523543 0.46302131 0.60805195
0.09980039 0.92274535 0.01644671
0.14815847 0.99521018 0.65822183
0.72267994 0.44835328 0.15198913
0.64498426 0.35112643 0.50037375
0.60889261 0.98985671 0.08534613
0.66214663 0.83981023 0.50476194
0.32361207 0.24237100 0.09242634
0.21954903 0.41672533 0.67433049
0.15307799 0.88465399 0.23063616
0.02756500 0.78866063 0.64455676
0.63398254 0.52116899 0.27981960
0.73877687 0.34377087 0.59694105
0.74640138 0.84906127 0.10323749
0.78169129 0.11502016 0.73258180
0.48658435 0.15523025 0.16773676
0.45373539 0.21054987 0.64095573
0.33697181 0.50877017 0.14548049
0.15190572 0.59622214 0.74575953
0.84308861 0.08521409 0.24548082
0.64296507 0.15247192 0.49375056
0.90575548 0.51655581 0.07927277
0.83954428 0.50181639 0.65024157
0.34118967 0.92336460 0.23890467
0.29321810 0.12714273 0.70625636
0.34929809 0.64457783 0.01634089
0.48175052 0.64656175 0.62566150
0.78040300 0.01674619 0.14447291
0.91008058 0.09953260 0.52333251
0.86632403 0.54643742 0.22348032
0.84707896 0.74068107 0.60797558
0.41610663 0.26179875 0.32405292
0.44600701 0.05555460 0.64504105
0.43556991 0.62750451 0.24677420
0.35330341 0.68491401 0.49374701
0.98809138 0.13567347 0.15059304
0.94873743 0.21861136 0.64164839
0.79846616 0.71936054 0.11864193
0.74896922 0.60506918 0.65290626
0.16373565 0.98542081 0.14855396
0.29361600 0.02194314 0.62767912
0.27804174 0.70650240 0.11117462
0.39039287 0.37258053 0.75464644
0.88699201 0.22894663 0.15925889
0.84917886 0.00889955 0.67057528
0.84504505 0.65860445 0.00994800
0.95596498 0.60613950 0.55466708
0.34345286 0.15028702 0.99784442
0.26551637 0.13928125 0.52433118
0.47790134 0.58984314 0.10915675
0.38588225 0.52392029 0.53684862
0.75974691 0.15607637 0.09807809
0.76321029 0.16956955 0.58382523
0.08115618 0.58982931 0.97825689
0.95903207 0.64154334 0.71023036
0.41419118 0.01520355 0.09144707
0.40365842 0.09845692 0.50084253
0.28607649 0.60516500 0.22507142
0.29312071 0.72264381 0.60914519
0.86039535 0.15454622 0.01469600
0.08127093 0.34341751 0.74293010
0.15177757 0.75382566 0.41005583
0.80747355 0.64222703 0.52731967
0.60266646 0.34167682 0.24041116
0.26469629 0.41692978 0.82711928
0.29102225 0.84255469 0.46526784
0.36665576 0.78899122 0.96921991
0.75599391 0.41027458 0.34562348
0.15260881 0.24846610 0.90589306
0.85027153 0.91908046 0.26812078
0.98716281 0.91532473 0.91104604
0.34458831 0.40660269 0.24981397
0.40666214 0.26370785 0.84837716
0.39785064 0.99585004 0.37593799
0.33629635 0.99562044 0.81200475
0.88817280 0.49107201 0.37885154
0.89880399 0.35746852 0.76359371
0.90279736 0.97758715 0.41664636
0.90253729 0.77488785 0.82997004
0.28653974 0.27474719 0.39546968
0.28147096 0.33841982 0.95207171
0.44825238 0.88254584 0.45377177
0.42955187 0.68909415 0.81228548
0.99311782 0.37276402 0.36262028
0.91555175 0.25311456 0.86038584
0.83315076 0.85530248 0.49811871
0.84883597 0.82075938 0.98312386
0.47156447 0.41724098 0.39783396
0.40541751 0.40323386 0.99043392
0.26116525 0.91227314 0.33741936
0.41211017 0.73703617 0.15843637
0.81578060 0.31813589 0.47314941
0.95163643 0.46946189 0.89691987
0.75259230 0.90872114 0.35472451
0.76111190 0.90227755 0.83533843
0.32335267 0.24892776 0.58207483
0.39998672 0.49543919 0.89031808
0.47300888 0.87060376 0.28616964
0.51929743 0.88722121 0.08900167
0.85371889 0.40589897 0.25646034
0.74776553 0.15963189 0.91424074
0.97125657 0.83687045 0.34998466
0.91588528 0.01122207 0.07921789
0.16459465 0.49744067 0.15219725
0.49681826 0.39179656 0.87980698
0.40200637 0.76588733 0.34556613
0.41008914 0.96061914 0.94151169
0.89907769 0.25648963 0.34140623
0.83093701 0.59323975 0.75154598
0.89039113 0.70228964 0.23252854
0.64801537 0.02586346 0.70106805
0.36725508 0.62541192 0.60483301
0.12754016 0.62405770 0.86877577
0.63772653 0.86782508 0.62359005
0.87222164 0.36037235 0.88538992
0.37608812 0.12687319 0.11296163
0.36579199 0.36463457 0.35986590
0.63234808 0.62396343 0.37578163
0.12621272 0.37378389 0.12807967
0.11964633 0.36996792 0.63114415
0.62808080 0.63564313 0.87266228
0.87507849 0.88355080 0.87590419
0.12296736 0.11599400 0.37441837
0.63151565 0.13332654 0.88646733
0.62425789 0.37076684 0.12741831
0.86427734 0.12624549 0.63460008
0.36065119 0.87197504 0.87643086
0.00600826 0.99388066 0.99739437
0.98560068 0.00753470 0.50745518
0.00438557 0.49964827 0.99920678
0.99449244 0.49974177 0.50397164
0.50216849 0.99367751 0.01577681
0.48441695 0.01511077 0.45759902
0.49480871 0.48266779 0.97090784
0.48780628 0.49017169 0.49268773
0.97957491 0.22931767 0.23992054
0.98374277 0.26191388 0.75653927
0.99629538 0.73854478 0.27508881
0.00191294 0.75796514 0.75661024
0.51006769 0.25853042 0.24462617
0.49143379 0.26879111 0.75091101
0.49412088 0.75448688 0.25133613
0.49502152 0.76953636 0.76012363
0.23740519 0.99141400 0.24883905
0.24164899 0.01393406 0.73920502
0.25017318 0.49137842 0.23938904
0.22890991 0.50579527 0.75183122
0.75265715 0.99980220 0.26208223
0.75934295 0.00071380 0.75589758
0.75707302 0.49892931 0.25588796
0.74047611 0.51460532 0.73344218
0.24873043 0.23030590 0.99345810
0.23333684 0.25091344 0.50065341
0.25885785 0.75139765 0.00338176
0.23820936 0.73817644 0.49936760
0.75781954 0.24076069 0.00402217
0.72015468 0.25501916 0.51247367
0.75422571 0.75184229 0.01461838
0.75719267 0.75374925 0.51375708
0.43462380 0.19653769 0.43058296
0.44488429 0.18932177 0.93755664
0.45289283 0.67730641 0.41543036
0.43840622 0.68452964 0.93861739
0.94909632 0.17791570 0.42720960
0.95757783 0.18369359 0.95056865
0.93282681 0.69369733 0.45870117
0.93001208 0.71118738 0.93408274
0.21025375 0.05531291 0.06130126
0.19500377 0.04489132 0.55254333
0.18470023 0.55484309 0.04580918
0.17251209 0.55997554 0.55794114
0.70161767 0.05771284 0.05735484
0.69094310 0.06649230 0.57350020
0.69299632 0.54295814 0.07035028
0.69754067 0.56363118 0.55122168
0.30413939 0.05896781 0.43253979
0.31452657 0.05235772 0.93109860
0.30687958 0.56370161 0.44876738
0.30445370 0.56183013 0.93406995
0.81101605 0.06339082 0.45924301
0.81658849 0.06092331 0.93948203
0.81296667 0.55794064 0.43974019
0.81365401 0.55135033 0.95058035
0.06934103 0.19699790 0.07382643
0.04068176 0.18830435 0.55948494
0.05492569 0.68986754 0.04496479
0.05244088 0.70000072 0.56914869
0.55096678 0.19514707 0.06394263
0.54422181 0.18858647 0.55430762
0.55538052 0.66191669 0.04754561
0.55774122 0.68064312 0.53919498
0.13294391 0.13049216 0.87648272
0.12553898 0.63467185 0.38068661
0.63001825 0.12532213 0.37630165
0.43832572 0.43762357 0.17783962
0.44735076 0.44582947 0.67912093
0.45128890 0.94152242 0.18384863
0.44838856 0.94945203 0.70704031
0.94790950 0.45739058 0.19567723
0.94075281 0.43872442 0.68462366
0.93881472 0.94093343 0.18369631
0.94976160 0.94925716 0.71073750
0.19098902 0.29541391 0.31128573
0.18849785 0.31812765 0.80806573
0.19793118 0.80840103 0.31013984
0.18305183 0.80489559 0.80700951
0.68903756 0.30378312 0.31571752
0.67810643 0.30662876 0.81275614
0.67752168 0.80988997 0.29784864
0.69021760 0.80590078 0.82034601
0.29700153 0.31040168 0.18857237
0.30067133 0.32324819 0.68758311
0.31211964 0.80516572 0.18811498
0.30677300 0.81015400 0.69842989
0.80174052 0.31033301 0.19374145
0.79952450 0.32197535 0.70129186
0.81280457 0.80569957 0.20006126
0.80111133 0.80935451 0.69831786
0.06426465 0.45790918 0.31698729
0.04322318 0.44083609 0.81208617
0.05282220 0.92389799 0.30190787
0.06734107 0.95575437 0.82218210
0.55180589 0.43270577 0.30251386
0.56207427 0.45344048 0.79750602
0.56375608 0.94930018 0.30219765
0.58908098 0.95329701 0.79089879
0.13559306 0.87404331 0.11572321
0.11096892 0.87806482 0.63455392
0.62600566 0.37756156 0.62279862
0.63267398 0.87838822 0.11746134
0.19931923 0.18119318 0.18759149
0.19143424 0.20030030 0.68933544
0.19767856 0.68744004 0.19728108
0.20111555 0.69003017 0.68581437
0.68735441 0.19569109 0.19023909
0.69297142 0.19270308 0.69738349
0.69173792 0.69115118 0.18814080
0.68289533 0.69303633 0.70315262
0.44497750 0.06955031 0.28688259
0.45109183 0.03740757 0.84521271
0.41943593 0.52883759 0.31488820
0.43615907 0.56368973 0.79936779
0.93906334 0.04447796 0.31380059
0.95213655 0.07344012 0.82139833
0.94340666 0.57247052 0.31226241
0.93285762 0.55794828 0.80640277
0.06093891 0.05550173 0.20659764
0.06199872 0.07403293 0.70216121
0.06785888 0.57255694 0.20191931
0.04841316 0.55883307 0.68874364
0.56675520 0.06127334 0.17930304
0.53945473 0.08726891 0.71304486
0.53996690 0.56606149 0.20954789
0.55511132 0.57104839 0.68525671
0.31576959 0.18999590 0.30515420
0.31041790 0.20232829 0.80005425
0.31610528 0.69121918 0.30948271
0.30378825 0.69415522 0.81969172
0.80354864 0.18852357 0.31112683
0.80793468 0.20017200 0.81329039
0.79902131 0.69154767 0.31370771
0.80838394 0.69362269 0.81607441
0.36158635 0.12857755 0.60875954
0.36982409 0.62688972 0.13663939
0.86965482 0.11472756 0.12849669
0.87044140 0.62501282 0.13228640
0.86566645 0.62359475 0.63405806
0.19231070 0.45090124 0.43394464
0.19348776 0.43478133 0.93170542
0.19801496 0.92918544 0.43533363
0.19589147 0.93937351 0.94331584
0.68778215 0.44728027 0.43568648
0.69861306 0.43637097 0.94498904
0.69144434 0.95105920 0.45298203
0.69895843 0.94347676 0.93746628
0.42753431 0.30550225 0.05586609
0.43412155 0.30708606 0.55754245
0.44947758 0.79368482 0.05933147
0.42682037 0.78731608 0.53366111
0.94505350 0.29961297 0.07152338
0.91906675 0.29441640 0.54437685
0.94305581 0.81091982 0.06292662
0.93769350 0.81789819 0.56831986
0.05265164 0.30794665 0.44421823
0.05945114 0.31228543 0.95272837
0.04961742 0.81395941 0.44652198
0.05847997 0.81531368 0.94203514
0.54673164 0.31333863 0.43659463
0.55752266 0.30922686 0.94899712
0.55514609 0.80768077 0.43212385
0.56340959 0.79390574 0.94270352
0.30471820 0.43932289 0.04844118
0.29125529 0.45255481 0.56790317
0.32745460 0.93807428 0.04580090
0.32159623 0.93709292 0.54396940
0.81267943 0.43275889 0.06760166
0.80802659 0.43489329 0.55027813
0.81744378 0.93988988 0.05314582
0.80426538 0.94490246 0.57494822
0.37560820 0.37948022 0.87358360
0.37604402 0.88101046 0.35653672
0.87524615 0.37418191 0.37457361
0.86162434 0.87244574 0.38163812
0.26047498 0.99590300 0.99714207
0.25525248 0.99074216 0.49177231
0.24679660 0.49828481 0.99093757
0.23843479 0.50944567 0.50202208
0.75819286 0.00002544 0.99595397
0.74934930 0.00712513 0.51689447
0.75571889 0.49261549 0.00803056
0.75073467 0.49829885 0.49377360
0.25006512 0.24254477 0.24838375
0.24691716 0.26149818 0.74743339
0.25552869 0.74953434 0.25200550
0.24896650 0.74850984 0.75388928
0.74674565 0.24798989 0.25193799
0.74572738 0.25698709 0.75678440
0.74492470 0.75024311 0.25146354
0.74641599 0.74901969 0.75818173
0.99675012 0.99005733 0.25028665
0.00835659 0.01366091 0.76250739
0.00527629 0.51373830 0.25693023
0.99094172 0.49978214 0.74818906
0.50778688 0.00668751 0.24028583
0.50757639 0.00724312 0.76714991
0.48617045 0.49061488 0.25057585
0.49901791 0.50755759 0.74057269
0.00820731 0.24867445 0.01028776
0.99053262 0.24500775 0.49150840
0.99435127 0.75647476 0.99653991
0.99334932 0.75713957 0.50832592
0.49402373 0.24983334 0.00250137
0.49100544 0.25206542 0.49514392
0.50535749 0.73504785 0.99761028
0.49815261 0.73991161 0.48187438
Direct configuration=      3
0.04195621 0.14052047 0.28356885
0.04240324 0.15951094 0.79829428
0.14480886 0.66239779 0.50152458
0.08075988 0.73735779 0.84629577
0.73183792 0.05388651 0.36897313
0.59813234 0.20602699 0.78767357
0.75515003 0.59765605 0.16633485
0.75613940 0.49403126 0.84832548
0.14779229 0.23032172 0.41924157
0.17932921 0.01531446 0.85164644
0.29452300 0.47929550 0.35400490
0.25725138 0.54803674 0.64349139
0.61446950 0.22169211 0.28938004
0.68727054 0.31165791 0.93935414
0.51687733 0.39738505 0.56512055
0.58968387 0.75347292 0.83802932
0.13968239 0.00215808 0.31219386
0.16842355 0.10728644 0.76022349
0.15406398 0.53752780 0.30059756
0.30823328 0.57806716 0.79192169
0.58655422 0.02023318 0.40841975
0.51977434 0.09047483 0.92964137
0.66927617 0.67219741 0.48158955
0.54182090 0.60434573 0.95754409
0.02729127 0.08058198 0.42466122
0.16274373 0.14808852 0.99911063
0.00611749 0.65720955 0.36531559
0.23096272 0.66671838 0.91827153
0.66142301 0.07903242 0.25745075
0.67520224 0.02421348 0.84313336
0.53057094 0.59327405 0.44790644
0.74743475 0.73041354 0.90744859
0.24485265 0.09324698 0.31849872
0.03473653 0.08110716 0.91848997
0.24152763 0.65488207 0.40141168
0.06806382 0.86582801 0.74146959
0.71980697 0.21575491 0.39603595
0.65450076 0.16447216 0.00346623
0.82130517 0.76049401 0.40734429
0.68280945 0.68323578 0.06272410
0.27292615 0.08217290 0.16759672
0.25087079 0.15421945 0.89411811
0.10051329 0.67078262 0.26814531
0.98885380 0.65183110 0.14360637
0.51545277 0.14234830 0.36063194
0.85378880 0.00618986 0.83484733
0.74165962 0.58371390 0.34060466
0.64279340 0.57872327 0.76552263
0.15069368 0.49975629 0.84016596
0.09599371 0.52803039 0.43697876
0.24539967 0.83306880 0.90838488
0.08595351 0.90121482 0.50872149
0.70389477 0.28650221 0.10698005
0.69848659 0.39761351 0.72561453
0.58873138 0.73245478 0.33541113
0.73096174 0.91029905 0.67401595
0.18577150 0.26195276 0.09708033
0.14167583 0.25134261 0.58228845
0.24791363 0.84954998 0.07899609
0.21331818 0.89665143 0.72028624
0.83700159 0.33682684 0.99348949
0.63516713 0.25690646 0.60316509
0.66384384 0.91629264 0.22714002
0.54251568 0.87169727 0.70677903
0.09434614 0.41446704 0.01254323
0.21363790 0.36284457 0.52146772
0.14020224 0.77605766 0.04179571
0.21360640 0.83869844 0.57403429
0.59671818 0.43382460 0.02004925
0.54672475 0.37022162 0.70937459