Li192 P32 S160 I32
1.0
20.433000 0.000000 0.000000
0.000000 20.433000 0.000000
0.000000 0.000000 20.433000
Li I S P
192 32 160 32
Direct configuration=      1
0.10021812 0.01918330 0.38476562
0.12297439 0.04295111 0.77786792
0.10580726 0.49087633 0.36609405
0.99503364 0.64546553 0.87329670
0.60204032 0.01007850 0.39739717
0.63044744 0.02775533 0.82646885
0.63453267 0.50561718 0.34512844
0.61878378 0.52204663 0.89196717
0.36208112 0.47347051 0.35778212
0.33987895 0.49889693 0.85019510
0.39117176 0.99348052 0.38698298
0.36982956 0.00143459 0.88177657
0.88112603 0.49118142 0.38877222
0.89148867 0.49782542 0.89910069
0.90581059 0.97670330 0.39472537
0.85943931 0.99324509 0.86861432
0.38717503 0.01782698 0.10891891
0.34306171 0.09650065 0.73639669
0.38640545 0.51102777 0.07514245
0.38360957 0.50801418 0.61580933
0.87464361 0.01072361 0.10138415
0.89324435 0.00703750 0.59921223
0.88348282 0.50328307 0.09902530
0.73991276 0.62852628 0.62709867
0.14915209 0.47657897 0.14635509
0.14973535 0.47167125 0.65009611
0.15547861 0.99456431 0.15356562
0.10471661 0.95756622 0.58824241
0.63031187 0.50975913 0.10737776
0.62348056 0.48744898 0.61897923
0.61702952 0.00241080 0.11919049
0.60516879 0.98894391 0.60890851
0.39244351 0.12507588 0.01925840
0.37785308 0.00301314 0.62614600
0.33768106 0.65142601 0.03026631
0.34913625 0.63480330 0.50930664
0.89516084 0.14633735 0.01989203
0.86358654 0.12864279 0.50291670
0.76405351 0.63654302 0.11300379
0.87981532 0.60896746 0.51560566
0.41493821 0.40480344 0.48135352
0.35016029 0.35165941 0.98736020
0.35276729 0.82919213 0.45991002
0.34468735 0.87026744 0.00207594
0.89651117 0.40330189 0.48926272
0.86933488 0.34333088 0.98105084
0.85979565 0.86429301 0.48642502
0.87743532 0.88991335 0.99845832
0.13401134 0.37251289 0.01026825
0.10372144 0.37154164 0.52767838
0.09362145 0.91447862 0.02823460
0.16484790 0.84423019 0.49504607
0.61252325 0.37387031 0.01359393
0.59256853 0.39325880 0.51716254
0.74147299 0.92881338 0.16479603
0.63048462 0.86165296 0.50446181
0.14167944 0.12149176 0.49282980
0.10327555 0.04223497 0.94001920
0.10827311 0.59038490 0.47280646
0.11865389 0.61731802 0.98501683
0.55420599 0.12721053 0.46606937
0.61123324 0.11491019 0.98424600
0.61380429 0.57793816 0.47926764
0.63655564 0.67648140 0.97828162
0.01583544 0.38775741 0.09556813
0.01108390 0.34689771 0.66363068
0.00650150 0.92908761 0.13216633
0.00847568 0.86522895 0.61099619
0.50821535 0.39389052 0.12013484
0.51349395 0.33534530 0.66714232
0.65447077 0.88132221 0.01287023
0.50812493 0.88307156 0.60026170
0.47899899 0.36127801 0.35485881
0.48491056 0.38490651 0.86281435
0.48673612 0.86583870 0.32991429
0.47968991 0.92126315 0.91832992
0.99477621 0.33221142 0.35937166
0.99523515 0.38028955 0.87078031
0.99783797 0.86648933 0.39086628
0.98688685 0.91680993 0.87673146
0.02031358 0.11550966 0.38740926
0.99445491 0.13839162 0.84906518
0.00875314 0.64300996 0.37468233
0.12435038 0.73298003 0.89990226
0.54394311 0.18736440 0.34201506
0.51286630 0.14057087 0.85280556
0.50818456 0.64898964 0.38518244
0.48519989 0.61278821 0.90496025
0.49514151 0.12745650 0.14872097
0.50340957 0.12857765 0.62584905
0.48746685 0.60257377 0.11225190
0.48958982 0.60020678 0.60527495
0.99199075 0.11600690 0.12562386
0.99530779 0.13679562 0.65238258
0.87265356 0.63191407 0.00131003
0.85000431 0.52686988 0.65394994
0.14218508 0.25626830 0.10756715
0.14973361 0.24085280 0.62801132
0.09191616 0.76592729 0.14319413
0.16224610 0.75349907 0.59684866
0.60821230 0.26891997 0.14481589
0.66629797 0.26055534 0.61238236
0.64000571 0.78667523 0.10265654
0.61376922 0.75628285 0.63516414
0.38394872 0.24514615 0.13271127
0.39984418 0.10191746 0.51279197
0.38623954 0.72474063 0.15421427
0.38782078 0.73770832 0.61872997
0.89724826 0.22829109 0.15187285
0.87813690 0.23841962 0.59853484
0.89315881 0.72754074 0.12767368
0.97793775 0.62237839 0.60278124
0.35790154 0.25508515 0.42040561
0.39210165 0.26285475 0.86457274
0.38459359 0.77958252 0.31605486
0.36651895 0.78252727 0.89443858
0.85666412 0.25835491 0.38886748
0.90654627 0.28030845 0.84232828
0.83778545 0.74995106 0.40129282
0.83985542 0.76364988 0.90280757
0.16713413 0.24132804 0.39674936
0.11059926 0.18951549 0.95651463
0.11249232 0.72642459 0.34790165
0.24677464 0.62112636 0.85822610
0.66318085 0.23298653 0.40559525
0.66674328 0.22929229 0.91888384
0.62494965 0.71266457 0.43959110
0.61398415 0.75824213 0.85687969
0.38460491 0.36911718 0.26065819
0.35587322 0.39192895 0.76045585
0.36010498 0.90052298 0.24110653
0.38170424 0.86039424 0.77071863
0.88545947 0.37745118 0.26522224
0.86354043 0.41353740 0.76524157
0.89239173 0.82664483 0.26873251
0.91982301 0.83860355 0.77401494
0.37493493 0.13135459 0.24199059
0.39169624 0.21723910 0.65353304
0.36276318 0.58387375 0.22961141
0.39676423 0.63347422 0.73603262
0.85955405 0.10302432 0.23956342
0.84662822 0.10768108 0.73892369
0.98265781 0.62156076 0.11582140
0.89506258 0.66043022 0.72586534
0.10919049 0.13105752 0.26857084
0.12873262 0.21798373 0.79162675
0.13563603 0.59837213 0.25115343
0.10533612 0.66649272 0.76391750
0.68367483 0.10132636 0.27279222
0.61570416 0.19172799 0.77649470
0.60362608 0.66695686 0.26439576
0.59326765 0.63245780 0.74458895
0.08963912 0.32604543 0.22243539
0.16287842 0.37791132 0.74332359
0.11500462 0.85585033 0.24412521
0.10437728 0.83663183 0.72098524
0.65366676 0.39781914 0.23060334
0.64919945 0.38063245 0.74659588
0.50200608 0.87785530 0.14516598
0.56508212 0.85377906 0.73327949
0.26274543 0.39441431 0.36406670
0.24914038 0.36721376 0.89765540
0.25791658 0.90716792 0.34079045
0.24896324 0.88397382 0.86920380
0.76872205 0.39151004 0.35313114
0.76831134 0.37893668 0.87614883
0.77757679 0.88927145 0.35699876
0.77716600 0.88547974 0.85279588
0.23936120 0.38215993 0.12616284
0.24438518 0.35714025 0.61486294
0.23021626 0.86325554 0.10338815
0.24444983 0.89108628 0.64017853
0.74889444 0.36769014 0.11054532
0.73660393 0.39658490 0.63399746
0.64024814 0.87876552 0.25303956
0.72259976 0.88617507 0.64710999
0.26126874 0.13967451 0.11535050
0.26253644 0.12705148 0.59628732
0.25212846 0.60355180 0.15235972
0.27398809 0.59802893 0.65446644
0.76437577 0.17101479 0.09705408
0.76031630 0.10853137 0.62249841
0.86492580 0.60847953 0.23786176
0.85948824 0.75004521 0.58919530
0.23156703 0.09630920 0.33913995
0.22201593 0.09887063 0.85326676
0.23584127 0.61843647 0.36892479
0.11822726 0.51678366 0.86809690
0.72101940 0.12032106 0.43385720
0.74740471 0.11108446 0.84365963
0.72817289 0.63081481 0.34841564
0.72655336 0.63613123 0.85944036
0.98504148 0.99206911 0.99482830
0.99772370 0.00290281 0.48709278
0.99586978 0.49318104 0.00993225
0.99510690 0.51481211 0.47055653
0.49488815 0.01377861 0.00179755
0.51092640 0.00651317 0.49578196
0.50919902 0.51437344 0.02028766
0.49908280 0.48716012 0.52291162
0.99713222 0.24105167 0.25556635
0.99464048 0.23557507 0.74588030
0.99435581 0.73723635 0.24259667
0.00361469 0.73652559 0.71833107
0.48049296 0.27303915 0.25407255
0.49698701 0.23072998 0.75174048
0.49400850 0.75602511 0.25826511
0.49598087 0.75072734 0.74214317
0.28221359 0.01871594 0.24152638
0.25652117 0.99570175 0.77732012
0.24779174 0.50375111 0.25502504
0.23821613 0.49781210 0.75416136
0.76983849 0.99475928 0.27130718
0.76665586 0.00100791 0.75854874
0.75943572 0.49477031 0.25377564
0.75079237 0.49280705 0.74609898
0.24222339 0.25637373 0.00767278
0.23430284 0.24045688 0.51436880
0.23896580 0.75212144 0.99419799
0.25503935 0.73063848 0.48460448
0.76473584 0.26334643 0.01282502
0.77149991 0.23951080 0.50850369
0.75215805 0.75580281 0.00841087
0.74202686 0.74019589 0.49565474
0.12932092 0.12771826 0.37529803
0.11300051 0.12469265 0.86710367
0.12361353 0.61162283 0.36747255
0.13092123 0.62398073 0.86822657
0.63157926 0.12752649 0.37186214
0.62668845 0.12921282 0.87578797
0.62679027 0.61721555 0.36934854
0.60064201 0.64282668 0.87118824
0.36197363 0.36258420 0.37270723
0.36848412 0.38218290 0.87250726
0.37077285 0.88207760 0.35866283
0.36358432 0.88864733 0.88512332
0.87850552 0.38208274 0.38447694
0.87566932 0.37406765 0.87323484
0.87712712 0.85028486 0.38091230
0.88473340 0.87533490 0.88200571
0.38113794 0.13682096 0.13427713
0.37962492 0.11771235 0.62309530
0.37243834 0.60314989 0.12162297
0.37861526 0.61893344 0.61783453
0.87646111 0.11913087 0.13168138
0.88472062 0.12164437 0.61633706
0.87595821 0.61757232 0.11914784
0.86317620 0.63781110 0.62077808
0.12666897 0.36913403 0.12599801
0.13415268 0.35998539 0.64032291
0.11471789 0.88197831 0.12712900
0.12400060 0.85879053 0.60852182
0.63617817 0.37688870 0.12241845
0.61825941 0.36440369 0.63441617
0.62369070 0.89425837 0.13157851
0.61143574 0.86744755 0.61503162
0.05512266 0.42408681 0.29097733
0.05439913 0.44432318 0.79856643
0.04493439 0.93522064 0.31084156
0.05654274 0.91474278 0.78395164
0.56284297 0.43746645 0.29398934
0.56999239 0.45118373 0.81225558
0.55524267 0.94650759 0.31161208
0.54046488 0.93168855 0.81291156
0.46415942 0.07680861 0.31810855
0.44426552 0.05367438 0.79822281
0.44578474 0.54450718 0.32456793
0.44506321 0.55330079 0.81245260
0.94019433 0.05548607 0.31775477
0.95278934 0.03952119 0.80705961
0.94262549 0.54691185 0.30453074
0.93853776 0.56265448 0.80692104
0.43499619 0.44964132 0.19130358
0.44744362 0.43418684 0.69348263
0.44131143 0.97035198 0.19437700
0.44591028 0.93420223 0.68384073
0.93804468 0.43821290 0.17994017
0.93580428 0.45212104 0.69200572
0.92815393 0.94478331 0.19927392
0.93105280 0.92747936 0.67454488
0.05357690 0.05341256 0.19639495
0.05772561 0.03819653 0.67900926
0.06402604 0.54388321 0.18361422
0.05595194 0.55780539 0.67834973
0.57774738 0.06620868 0.21325466
0.57232502 0.05055968 0.70626307
0.55213737 0.56391126 0.20248103
0.56212715 0.55485599 0.67700274
0.30024352 0.06241111 0.44763871
0.30839342 0.06839391 0.95999034
0.30692979 0.54242236 0.43635085
0.30318687 0.56287687 0.94092071
0.80710785 0.04783119 0.45042077
0.81196052 0.08595474 0.94247534
0.79710556 0.56732773 0.43584931
0.80171610 0.56186167 0.91945222
0.30289845 0.44224474 0.04878895
0.30441917 0.43987337 0.56029925
0.30162915 0.94445340 0.07681668
0.30325720 0.91366203 0.53345930
0.81708603 0.44864448 0.03637342
0.80805920 0.44799356 0.54962224
0.79793506 0.95182402 0.05070348
0.79438436 0.93653770 0.57424716
0.18033644 0.43682810 0.45195624
0.18440583 0.45481793 0.93972026
0.17930268 0.94279998 0.42850112
0.18684237 0.94886705 0.95508316
0.69371868 0.43200219 0.43687366
0.69408088 0.44321686 0.93266146
0.68788393 0.93172480 0.44754038
0.69667623 0.96179575 0.92566332
0.18157655 0.05912431 0.07207980
0.18702825 0.03588981 0.55668589
0.18819948 0.56551699 0.06652669
0.19336398 0.55675454 0.55926681
0.69043566 0.07316648 0.05501069
0.68586342 0.06464282 0.54468332
0.70366315 0.57110159 0.04264714
0.68597207 0.55216371 0.55503805
0.44229765 0.32356671 0.05099947
0.44258825 0.30100658 0.55877397
0.42977385 0.80957304 0.06975955
0.42800760 0.80914463 0.54545354
0.94282501 0.31328770 0.07009333
0.95342277 0.31375350 0.55948085
0.94821338 0.81562702 0.07179395
0.94885788 0.79961408 0.54789058
0.06766339 0.30567073 0.44226764
0.06282283 0.30919283 0.93950742
0.06294846 0.78986452 0.43250148
0.06259845 0.81746060 0.95328222
0.55697559 0.30291467 0.43639362
0.54846050 0.31711175 0.93093323
0.55050537 0.79192689 0.43139083
0.54564661 0.82306763 0.94843347
0.45088561 0.19076804 0.43910947
0.45180050 0.19787589 0.94366572
0.42140004 0.69933122 0.43345117
0.42238760 0.69629185 0.95579568
0.95078694 0.19034269 0.44093701
0.93281672 0.21465317 0.94683331
0.93861187 0.68233903 0.44798984
0.93607842 0.70207445 0.95169815
0.05704657 0.19966742 0.05282967
0.06269662 0.19908032 0.56474049
0.05658891 0.70192133 0.05786324
0.06409287 0.67288718 0.55223405
0.56580911 0.21295896 0.05676537
0.56893450 0.19682236 0.55618380
0.55781959 0.70811374 0.05758307
0.54364445 0.68756006 0.55516857
0.30428597 0.31863990 0.19581241
0.32323088 0.29949642 0.69329320
0.30304579 0.81018777 0.17810162
0.30295071 0.81726446 0.69817726
0.81743083 0.30780766 0.20078370
0.80676493 0.31996559 0.70204328
0.80702509 0.82217088 0.18353254
0.80203170 0.81587184 0.69791234
0.29809156 0.19787221 0.32192709
0.32453620 0.17918215 0.81611148
0.31423472 0.69713169 0.27921539
0.32109083 0.69713776 0.80617207
0.80066780 0.18361770 0.30558964
0.82931708 0.19688772 0.81931793
0.82347247 0.69510947 0.29668650
0.80142606 0.70361138 0.80617392
0.18735548 0.19621088 0.20533455
0.21011470 0.17300540 0.70658940
0.18963510 0.68746170 0.19226869
0.20710432 0.68635591 0.68346344
0.69664268 0.20601250 0.18974123
0.70370636 0.19445294 0.69955965
0.68539422 0.70432395 0.17886635
0.68330299 0.70034734 0.69416429
0.19336582 0.32708382 0.30744106
0.20888958 0.29449937 0.81043399
0.19196509 0.80873921 0.30319146
0.18647580 0.79648081 0.80743975
0.69820270 0.31520518 0.30782810
0.69898897 0.29954344 0.82137593
0.70463871 0.80383674 0.31272606
0.68264377 0.82731313 0.80780845
0.99394636 0.99998920 0.25788401
0.99987678 0.97945726 0.73468471
0.99979471 0.49067696 0.24121954
0.00090468 0.50795006 0.74727868
0.50849724 0.01206720 0.25361910
0.50250937 0.99500114 0.74866793
0.49890802 0.49964698 0.25198132
0.50689039 0.49430944 0.74505592
0.24718716 0.00415240 0.01431179
0.24207801 0.98614075 0.48807854
0.24173700 0.51144981 0.99903707
0.24657722 0.49831599 0.50101806
0.75092575 0.02097904 0.98907604
0.74697724 0.99482735 0.50603026
0.75287334 0.50282088 0.98167179
0.74670826 0.49919384 0.49239480
0.99913770 0.26122427 0.00057812
0.01073268 0.24929305 0.49731057
0.00289139 0.76361543 0.00674166
0.00455163 0.73703841 0.49301342
0.50009574 0.26182449 0.00114732
0.50514348 0.24849782 0.49853844
0.48957506 0.75771969 0.00891413
0.48566966 0.74768283 0.49283767
0.24755775 0.25844158 0.25349891
0.27069489 0.23878506 0.75559612
0.24518093 0.75150290 0.23912416
0.25375896 0.74917284 0.74869838
0.75068828 0.25271638 0.25407921
0.77015304 0.25425291 0.76035466
0.75480392 0.75610402 0.24244011
0.73526350 0.76338800 0.75279212
Direct configuration=      2
0.11987476 0.00290660 0.38362466
0.14780784 0.06158367 0.76430744
0.11068820 0.49602257 0.39873086
0.01190017 0.62129689 0.89470758
0.65620260 0.02181489 0.36303641
0.63830106 0.03698573 0.82299804
0.59653573 0.50327224 0.37445442
0.59187876 0.52959572 0.87480920
0.40342970 0.49918986 0.40730878
0.39789756 0.48838336 0.89364828
0.38174253 0.97942351 0.39241968
0.35362594 0.98337281 0.86961030
0.89717841 0.47013100 0.35921202
0.89198732 0.48808337 0.93102347
0.87671502 0.96971467 0.33260065
0.86227079 0.99347742 0.87105838
0.38686969 0.01299732 0.12116221
0.34949943 0.10665919 0.74179548
0.38380985 0.51582361 0.12138826
0.38726527 0.51168227 0.61056126
0.85366353 0.02766444 0.12485020
0.91137261 0.00550213 0.58579168
0.88236542 0.51942433 0.09958407
0.74832088 0.65469340 0.60821539
0.14396362 0.48601278 0.14584751
0.11196402 0.47877973 0.63146256
0.15110745 0.98583927 0.15413762
0.09816642 0.96247090 0.58491992
0.61733238 0.50315475 0.10188671
0.66333765 0.48370443 0.65036449
0.59008943 0.99423819 0.10626172
0.60347098 0.00492490 0.60828314
0.35512046 0.13974111 0.01071716
0.37246656 0.00873127 0.63476661
0.35438198 0.65804649 0.01708758
0.34011300 0.64008496 0.51529427
0.87806916 0.13574392 0.01297147
0.84484706 0.14448466 0.52648025
0.75256059 0.64639731 0.13502686
0.89089256 0.59553223 0.53840248
0.37932475 0.38930633 0.49447855
0.36947827 0.36618950 0.98672787
0.32668691 0.85516907 0.47966823
0.36634928 0.87023718 0.98443378
0.88366520 0.38349884 0.48144960
0.86905175 0.36205199 0.00242984
0.86274676 0.85639388 0.48875689
0.87563940 0.88516223 0.98440786
0.10162084 0.39618126 0.01532810
0.07788011 0.38141987 0.52718303
0.11679805 0.87864620 0.00430520
0.14881708 0.84205997 0.50258832
0.63107217 0.36162823 0.02194785
0.61994541 0.39046523 0.53219888
0.74666204 0.89781533 0.14400533
0.64045163 0.87512986 0.50929247
0.13737867 0.12477682 0.48368445
0.09103123 0.03624254 0.91514187
0.12157458 0.62536084 0.49218757
0.17508008 0.65438332 0.98427893
0.58797553 0.12140801 0.48020137
0.58025116 0.11186599 0.97601998
0.59137487 0.59225433 0.47936929
0.63768419 0.65232990 0.99128809
0.01363231 0.39586955 0.12117939
0.02510698 0.33932169 0.67928682
0.01008769 0.90840032 0.10735614
0.01480170 0.83375763 0.63384600
0.51195646 0.38165128 0.12288570
0.52334672 0.37713523 0.63823517
0.63124126 0.88856161 0.00473340
0.51652504 0.90039218 0.59670396
0.48269413 0.34876579 0.36410125
0.49790266 0.37773974 0.89027523
0.48915623 0.88863217 0.35688585
0.48720265 0.90823453 0.88951693
0.00168440 0.35008802 0.37860290
0.98689551 0.38405906 0.87616304
0.99180881 0.87686420 0.38634818
0.97871476 0.92496729 0.87765514
0.01133978 0.13100173 0.38677848
0.02182573 0.19509725 0.87382872
0.01706485 0.62536864 0.38156440
0.15822807 0.74695063 0.89430141
0.51917580 0.14464275 0.35166641
0.50853293 0.12458083 0.86484553
0.50149640 0.65280605 0.35755177
0.52141152 0.61948258 0.91520156
0.48971410 0.12884607 0.12235731
0.48926499 0.12912350 0.64775715
0.48954380 0.62846259 0.13595545
0.48480850 0.62686223 0.60897234
0.98703231 0.10508002 0.11854033
0.99032334 0.11099784 0.61959858
0.84054286 0.64532863 0.99587278
0.85208941 0.50268928 0.65153658
0.12602552 0.25746717 0.08891939
0.12103340 0.24833839 0.62928656
0.09901901 0.76681364 0.13036270
0.12919883 0.74494564 0.60900726
0.62055437 0.28478165 0.18799549
0.66217350 0.26167531 0.60573851
0.64704483 0.77422429 0.10144710
0.63143449 0.77526873 0.59914375
0.40045349 0.25118943 0.14539971
0.39527155 0.08907483 0.50972892
0.38351086 0.74419946 0.14093194
0.39083625 0.73656025 0.64343687
0.90988343 0.24618184 0.14355278
0.91424070 0.23937567 0.62647344
0.87293858 0.74526679 0.10443183
0.98003121 0.64289135 0.64568992
0.35567751 0.26913227 0.40617626
0.40051845 0.26532019 0.85018653
0.37945649 0.76297856 0.35916624
0.38894044 0.74922008 0.85783666
0.84752365 0.25619038 0.39159213
0.84950123 0.26937207 0.87078167
0.85574849 0.74699299 0.37616465
0.85541819 0.76164967 0.88526725
0.14769723 0.22356138 0.37656209
0.13985223 0.23213134 0.91467315
0.10651453 0.72565954 0.35766591
0.24053530 0.60926390 0.83947467
0.62348990 0.25976959 0.38783215
0.66014435 0.22760159 0.92193499
0.62667413 0.72450654 0.42205617
0.57690975 0.76198111 0.84629029
0.38012205 0.35277682 0.26185912
0.34246812 0.39437916 0.77683296
0.37722906 0.90021474 0.24441650
0.36874110 0.88153984 0.75670304
0.89827508 0.35003824 0.25481977
0.87353090 0.41216014 0.77158212
0.90951546 0.85284594 0.27253453
0.91978846 0.85692600 0.76279611
0.36572783 0.11384181 0.24044764
0.39169388 0.23377791 0.64913633
0.35754368 0.61863093 0.24360437
0.39515817 0.62378115 0.73039789
0.87153516 0.12960843 0.24396175
0.90849452 0.12815120 0.73902530
0.99201866 0.63131001 0.10117417
0.86989773 0.63021010 0.74946361
0.10561690 0.13931272 0.26244207
0.11476677 0.21314686 0.77365013
0.14719362 0.59971839 0.26702735
0.09057047 0.63562876 0.77653122
0.64672444 0.10785938 0.27103701
0.61754547 0.21413205 0.76616871
0.60294603 0.65705808 0.26868652
0.62171500 0.64757561 0.75747932
0.11318224 0.35744231 0.22673421
0.15200316 0.38997569 0.74329285
0.06313408 0.85562941 0.23549213
0.10936800 0.84199740 0.72236549
0.64730933 0.40540454 0.24033049
0.64659600 0.38225366 0.73990581
0.53003087 0.86761090 0.12215554
0.60395180 0.84976783 0.72539355
0.26072240 0.39583984 0.38605062
0.25810900 0.35428723 0.88835463
0.26820877 0.87280306 0.30779699
0.25890327 0.89289156 0.85466519
0.76626883 0.40664265 0.36129199
0.77178592 0.41541254 0.87462676
0.76516880 0.89021310 0.37990800
0.75960140 0.90465840 0.85522787
0.24455819 0.34906439 0.10178067
0.23525260 0.35480750 0.61524534
0.23437665 0.85431467 0.09680832
0.22326416 0.91672982 0.65019193
0.73662543 0.35904426 0.12085846
0.75680637 0.36985987 0.64492963
0.63513001 0.86237699 0.23398866
0.74547656 0.91362090 0.65574770
0.26468138 0.12399235 0.13266624
0.25942461 0.13490812 0.59983537
0.27114217 0.59746336 0.13930356
0.25835135 0.60741061 0.64713886
0.75664932 0.14848951 0.11129310
0.78008828 0.09071294 0.65827420
0.86196357 0.60437610 0.21896166
0.87071508 0.73532053 0.62672881
0.23839744 0.10719573 0.35885080
0.22708503 0.12518062 0.88349532
0.23113119 0.62879453 0.40106254
0.15052168 0.51499084 0.86076400
0.74346367 0.13028856 0.39957494
0.72751928 0.11318989 0.85611080
0.71212521 0.61698095 0.37405501
0.72825462 0.63940923 0.89742611
0.98259045 0.99539146 0.98722858
0.01625900 0.00911270 0.47530356
0.00639395 0.49430409 0.00755498
0.99024284 0.50156828 0.47553177
0.48626719 0.01064039 0.00408815
0.51327057 0.01007456 0.50698742
0.52073672 0.51844860 0.00880047
0.50141929 0.48355657 0.52196263
0.01255143 0.24260110 0.25771021
0.97902984 0.24044569 0.75028354
0.00627629 0.73502069 0.24092455
0.00544342 0.73802839 0.72050427
0.49130080 0.25758164 0.25768568
0.48836629 0.22793954 0.74301879
0.50151463 0.75884524 0.26201461
0.49628484 0.73305675 0.73963325
0.26388253 0.01240954 0.24442850
0.25395112 0.99304853 0.76845886
0.24653985 0.51107964 0.24560176
0.24117591 0.49977542 0.73447316
0.76070720 0.00704697 0.27220211
0.75550346 0.00330027 0.76014507
0.75053338 0.49836168 0.25525834
0.75198467 0.46723310 0.75232620
0.24856066 0.26351646 0.00903088
0.24033287 0.24179052 0.52144649
0.25568965 0.76488738 0.98437110
0.23767228 0.73231785 0.48994560
0.76270213 0.26310522 0.00607170
0.75412752 0.24301807 0.50791824
0.75455143 0.75516142 0.00778192
0.74362443 0.73432903 0.49830546
0.12607538 0.11047322 0.37116510
0.12476861 0.12570495 0.86110479
0.12288797 0.61390089 0.37377541
0.12503246 0.64125494 0.87911941
0.62189523 0.13644208 0.37702487
0.61588740 0.13453742 0.87110717
0.60387010 0.61569313 0.37897278
0.62214067 0.65428038 0.88223425
0.37160595 0.37936284 0.39028198
0.37731128 0.37330722 0.87775288
0.37289391 0.87473537 0.35964164
0.37190366 0.87325166 0.87327815
0.87850314 0.36212621 0.36170574
0.88426145 0.39092831 0.87674974
0.87941423 0.86220403 0.37577176
0.86633622 0.87235072 0.86135949
0.37493836 0.13697812 0.12562880
0.37440444 0.10891871 0.62746532
0.37731566 0.63694489 0.11667718
0.37338646 0.62345686 0.62344397
0.87771200 0.13587089 0.12537827
0.87860985 0.12459006 0.63167772
0.87597738 0.63470575 0.11324950
0.86441749 0.61767801 0.64512284
0.12837930 0.37432816 0.11738759
0.12533353 0.36021346 0.64140165
0.11974310 0.87641662 0.12448353
0.12672195 0.86682588 0.61200488
0.62307452 0.38912600 0.12873780
0.63969670 0.36961323 0.63258496
0.63350399 0.89019986 0.11416891
0.62620920 0.88710662 0.61824509
0.06385692 0.43931443 0.30485291
0.06188825 0.43493768 0.80607555
0.04826577 0.94677200 0.30958292
0.06239400 0.92307588 0.79745288
0.54970124 0.44288122 0.29905860
0.56456542 0.43710479 0.80123485
0.56840991 0.96610949 0.30733011
0.55636503 0.93869060 0.79870407
0.44096762 0.05504102 0.30563518
0.44004196 0.04752926 0.81753011
0.43885932 0.55946281 0.30369411
0.46539091 0.56909751 0.81708056
0.93789831 0.06410352 0.30975125
0.95085783 0.04219053 0.80057996
0.94108067 0.55425293 0.29738924
0.94646598 0.55681835 0.80950749
0.43993854 0.44783523 0.18557766
0.43124217 0.44470611 0.71118657
0.46432040 0.94816895 0.18555508
0.44056424 0.94758767 0.68597522
0.93342293 0.43993165 0.18458341
0.95103809 0.44206253 0.68416919
0.93609887 0.93666072 0.19907967
0.94520206 0.92830720 0.67504263
0.05182735 0.05641558 0.19233275
0.06160297 0.04415491 0.68474655
0.05746594 0.55943723 0.18826873
0.06192036 0.55589721 0.69125131
0.55884183 0.08880409 0.19919967
0.57005912 0.05360820 0.70460903
0.56162106 0.56033811 0.19094094
0.55629108 0.56720648 0.69312647
0.30835787 0.04963306 0.43585092
0.30031887 0.05958444 0.93922902
0.30008846 0.54489055 0.44339723
0.31196713 0.55589945 0.93888930
0.81706170 0.05536644 0.45039149
0.80888598 0.06454607 0.93341855
0.80472727 0.55004252 0.44230367
0.79827426 0.56173586 0.91971982
0.30988846 0.43966181 0.05748506
0.29977526 0.43892488 0.57849025
0.29832536 0.93984225 0.05229885
0.30697953 0.94037025 0.55929225
0.81028477 0.46207743 0.03342099
0.81040780 0.45129640 0.55925014
0.81297668 0.95616814 0.04791704
0.81419034 0.93907114 0.55529787
0.17715587 0.42965303 0.46529422
0.19789153 0.43380511 0.93533913
0.20345868 0.93122697 0.43121127
0.18367301 0.94606008 0.93736307
0.68493412 0.44937679 0.45066384
0.67758415 0.45543968 0.93765609
0.69912063 0.94362288 0.44442028
0.68786295 0.95331061 0.93469383
0.18766028 0.06224178 0.05389781
0.18866685 0.05356826 0.54976269
0.19673162 0.55867664 0.05115618
0.18601747 0.56122871 0.56310722
0.68024099 0.06426397 0.05027959
0.70419229 0.05001719 0.57121815
0.68968071 0.57191613 0.05231887
0.68203311 0.56312198 0.56744638
0.45153957 0.31367814 0.05479446
0.44745844 0.31531683 0.56544850
0.43252739 0.82030730 0.07527714
0.43004442 0.80719916 0.54750084
0.96150759 0.31442267 0.06913458
0.97128488 0.32456704 0.56275585
0.94636900 0.80987229 0.05389314
0.93764681 0.79228455 0.55740814
0.07411855 0.28389719 0.44247896
0.05416412 0.30202313 0.93930403
0.05434842 0.79160550 0.44097951
0.05384129 0.81125765 0.93421784
0.56047772 0.32038048 0.45619058
0.56282460 0.29946172 0.94088818
0.55354126 0.80638274 0.43600660
0.55320536 0.82323297 0.95670497
0.45798537 0.19020891 0.45473130
0.44289578 0.19510348 0.93813038
0.43566522 0.67470964 0.43236790
0.43621609 0.70369802 0.94765258
0.93487908 0.20363533 0.45405113
0.92715266 0.20158276 0.94306489
0.93263009 0.67743816 0.44595323
0.94176064 0.69091814 0.93642267
0.05894835 0.17903405 0.03465911
0.05300776 0.17814928 0.56205786
0.06760224 0.69917165 0.05276939
0.04091937 0.67871943 0.55796702
0.56748066 0.19970547 0.06302964
0.57038344 0.19876114 0.56836658
0.55430322 0.69824035 0.06636126
0.55299797 0.68640415 0.53691463
0.30856513 0.29918241 0.19630387
0.29973939 0.29592980 0.69534143
0.29872945 0.80320866 0.18503159
0.30562633 0.82568029 0.68119755
0.80313849 0.29949920 0.19010318
0.82499917 0.29773719 0.70835539
0.80860889 0.81936324 0.20973641
0.81913965 0.81818771 0.70659670
0.30635186 0.19785446 0.32274973
0.30460062 0.19545131 0.82248082
0.29578262 0.68960491 0.30871146
0.31158369 0.69163422 0.79510434
0.79954471 0.18692218 0.31121636
0.81137571 0.18030061 0.80692304
0.80375412 0.68050717 0.29808879
0.79552229 0.70129599 0.81715723
0.18602372 0.19092491 0.19799587
0.19177311 0.17767626 0.70520189
0.20179919 0.68591468 0.17732347
0.18994440 0.68867838 0.69321198
0.68993625 0.19504840 0.19365357
0.70380773 0.19348693 0.68636973
0.68322368 0.71072972 0.20019008
0.69494707 0.71927214 0.68867667
0.19040915 0.30866252 0.30922306
0.18234674 0.29272887 0.81087574
0.17765311 0.80145482 0.29336958
0.20315258 0.81383931 0.80468093
0.68674785 0.31318496 0.30316992
0.70445789 0.30324699 0.80483355
0.69772073 0.81481342 0.32955556
0.69181049 0.82437557 0.80300864
0.99050683 0.00188439 0.24724523
0.00019881 0.98158399 0.74003727
0.00050573 0.49830559 0.24207073
0.00370987 0.50108524 0.74573970
0.50372284 0.01789403 0.24865309
0.49766861 0.99784117 0.74688998
0.49966908 0.50496253 0.24230110
0.50366840 0.50831136 0.75274445
0.24002838 0.00358929 0.99738911
0.25232808 0.99564443 0.49739333
0.25504374 0.49869555 0.00028457
0.23990433 0.49012454 0.51181124
0.74427320 0.01145893 0.99309388
0.75348477 0.99704255 0.50285731
0.74184276 0.51331833 0.99049272
0.74312023 0.50848773 0.50424137
0.99579659 0.24761571 0.00350047
0.00392593 0.24939537 0.50755364
0.00104166 0.74923971 0.99443027
0.99162495 0.73376512 0.50058274
0.50471839 0.24916198 0.99909344
0.50795421 0.25444100 0.51330195
0.49096594 0.76404954 0.00813746
0.48655977 0.74529586 0.48775247
0.24720216 0.24749601 0.25789655
0.24955198 0.23802546 0.75673893
0.24227374 0.74354272 0.24200496
0.25148504 0.75318676 0.73943255
0.75138819 0.24983768 0.25477723
0.75675387 0.24077127 0.75313416
0.74890163 0.75516023 0.26131061
0.75402423 0.76677955 0.75396676
Direct configuration=      3
0.12658971 0.00009669 0.37819772
0.15501197 0.07603506 0.77310381
0.10336188 0.50673640 0.40040905
0.03861208 0.61632022 0.90255862
0.63140842 0.01370219 0.38137214
0.61723643 0.03872936 0.79740896
0.62477650 0.50493846 0.37149887
0.62295277 0.52350610 0.89083186
0.36934101 0.49764758 0.36395743
0.40162297 0.47174605 0.93217402
0.38227505 0.97764495 0.39620067
0.34130891 0.98447155 0.84468876
0.88554115 0.49812800 0.39179266
0.88823133 0.49094343 0.90189275
0.87113888 0.00952996 0.36145079
0.85602221 0.99760112 0.84497307
0.39251315 0.00269249 0.09103581
0.37600563 0.13382170 0.74598550
0.37407111 0.52353997 0.12595813
0.37472359 0.51370264 0.61995586
0.85591735 0.03097245 0.18367986
0.87793816 0.00060212 0.62128175
0.86999961 0.51480451 0.13658896
0.77500496 0.64056821 0.60561998
0.15661491 0.49237958 0.14268904
0.14559634 0.49018286 0.64444965
0.14209536 0.98164713 0.11590482
0.11892447 0.98443761 0.59252167
0.62008434 0.48865309 0.09735665
0.65661571 0.49121219 0.65921298
0.62729767 0.98631253 0.13146644
0.60717065 0.99667651 0.61872864
0.33973643 0.15310550 0.00743853
0.36523941 0.00277530 0.64931295
0.36505407 0.66703348 0.01761723
0.36142609 0.62876383 0.51453796
0.87686700 0.10595968 0.00512291
0.84316550 0.14463701 0.52644648
0.75847468 0.59241640 0.15213791
0.89979387 0.60476036 0.52836543
0.38512446 0.37757266 0.49952412
0.36619427 0.34173288 0.98837702
0.35180252 0.84510012 0.48940054
0.36946437 0.86292334 0.97723001
0.90093469 0.38403100 0.49959930
0.85633498 0.35318533 0.00406976
0.82601740 0.84502935 0.48132584
0.86642215 0.92806922 0.97241132
0.12473194 0.36692078 0.01308313
0.09308400 0.40426163 0.52091288
0.13772307 0.85163277 0.98842937
0.13366385 0.84929502 0.49659978
0.66150365 0.35639603 0.01733170
0.61499254 0.40311335 0.51317665
0.74488412 0.88167185 0.15625915
0.62947608 0.88592459 0.50673478
0.12803909 0.10358144 0.48178186
0.11486367 0.05126418 0.95013587
0.13673586 0.64233098 0.49010622
0.16218027 0.63880991 0.97835048
0.62302108 0.12326541 0.49431814
0.60087862 0.07511074 0.98411113
0.61079409 0.61759874 0.49603737
0.61541528 0.64080636 0.99299742
0.02954986 0.43543009 0.12082033
0.01234346 0.34617606 0.65907530
0.01045827 0.90562929 0.08820088
0.00957125 0.86575078 0.60518202
0.52115397 0.38833899 0.09329106
0.52067354 0.38444298 0.64297614