Li192 P32 S160 I32
1.0
20.433000 0.000000 0.000000
0.000000 20.433000 0.000000
0.000000 0.000000 20.433000
Li I S P
192 32 160 32
Direct configuration=      1
0.10398414 0.01506894 0.39363868
0.13397972 0.04228279 0.78924714
0.10920365 0.51069948 0.38402285
0.01148566 0.64642507 0.85996359
0.61295897 0.01305488 0.39643018
0.63848604 0.01415084 0.85132988
0.63688038 0.51188608 0.35416839
0.61133080 0.51301790 0.89255069
0.39680396 0.48966882 0.38631284
0.35629654 0.48892683 0.86390877
0.39849503 0.98441007 0.39677828
0.36313175 0.98945856 0.86138413
0.89368285 0.48999827 0.38750006
0.89001646 0.49040348 0.89078243
0.87648925 0.98792443 0.37249722
0.86057431 0.98881863 0.85709179
0.39619808 0.01088701 0.10896699
0.34914489 0.10200724 0.73317631
0.38185260 0.51176637 0.10381118
0.39099342 0.51043869 0.60888673
0.85699045 0.01390388 0.13646606
0.89706534 0.00621267 0.61022873
0.88970050 0.51165618 0.10887232
0.75971947 0.64499807 0.60394918
0.14336516 0.48555009 0.14263778
0.11594563 0.48988618 0.61638013
0.15510271 0.98686133 0.14987219
0.10147619 0.98201037 0.60020900
0.61365615 0.48914728 0.10505782
0.64513389 0.48921634 0.65031152
0.60277888 0.98825742 0.10627414
0.60781386 0.98873665 0.60409747
0.39689210 0.11384550 0.01125184
0.38898982 0.01107941 0.60879015
0.36266471 0.64521956 0.00970955
0.35802564 0.63474445 0.50925069
0.85947669 0.14548659 0.01133828
0.89880841 0.10491234 0.50979160
0.76362759 0.63726275 0.10258570
0.89776178 0.60462127 0.51448456
0.38823000 0.38973640 0.48660219
0.35759679 0.35488004 0.98506688
0.35370070 0.84952751 0.48122528
0.35859882 0.86302754 0.99215948
0.89308451 0.39003616 0.49026017
0.85178660 0.34978891 0.98185405
0.85214642 0.86378983 0.48880061
0.88879584 0.89533093 0.98824448
0.14227553 0.35842086 0.01117854
0.09824797 0.39225966 0.51048895
0.11479496 0.88913603 0.01254968
0.14764901 0.85641699 0.50999986
0.64112119 0.35599610 0.01012850
0.59847170 0.40625004 0.51803638
0.74102991 0.89758721 0.14536505
0.65020779 0.85044970 0.51555736
0.13961505 0.13423775 0.48860851
0.12015097 0.04472499 0.95577306
0.10374928 0.61225879 0.48522423
0.09954788 0.59820453 0.98492381
0.54984923 0.12081131 0.47082595
0.60712117 0.10498664 0.98545990
0.60439568 0.59983740 0.48226028
0.64942445 0.64992186 0.98348835
0.01274883 0.39774145 0.09677510
0.01336749 0.35303248 0.65285029
0.01335297 0.89937244 0.11206736
0.01597049 0.85285655 0.63324419
0.51311857 0.38781140 0.10815439
0.51128326 0.35676358 0.64350903
0.64970273 0.86169468 0.01442099
0.50945569 0.88627464 0.60555335
0.48854895 0.35311766 0.35707167
0.48304205 0.39697858 0.89518240
0.48945492 0.85759217 0.35508720
0.48531464 0.90220384 0.90731211
0.98326270 0.34730091 0.35057562
0.99013915 0.39039388 0.89013748
0.98608182 0.89230758 0.40241072
0.98998169 0.88991949 0.88659154
0.01082380 0.14081581 0.36905700
0.01186530 0.13158979 0.86601406
0.00968364 0.64013060 0.34886838
0.15236486 0.73459926 0.90534354
0.51627242 0.15382152 0.33384820
0.51109333 0.12813175 0.87199469
0.51022075 0.63919232 0.35884915
0.50989533 0.60939223 0.89737607
0.49163896 0.13500119 0.13999593
0.48857785 0.13814861 0.64466198
0.48805890 0.61238022 0.10766090
0.48800256 0.61283133 0.60535248
0.98547909 0.10200567 0.10446532
0.98708385 0.14484336 0.64796978
0.89655698 0.61031541 0.00808358
0.85239820 0.51904316 0.64750182
0.10540885 0.25903570 0.13603443
0.13195765 0.25998902 0.61344805
0.10513249 0.76255979 0.13658073
0.15272093 0.75805776 0.60740538
0.60304944 0.26581954 0.14821526
0.64722222 0.26530743 0.60097877
0.64325440 0.76345342 0.11885926
0.60674760 0.76083776 0.63751935
0.39248033 0.23716036 0.14189415
0.38109381 0.12528351 0.50965971
0.39824656 0.73289422 0.15214746
0.35372640 0.73712008 0.60992131
0.90234428 0.23760000 0.15186175
0.85376684 0.23238683 0.60039561
0.86026941 0.74071135 0.10624675
0.98751253 0.64357136 0.63800524
0.35012487 0.26339288 0.39417800
0.40159096 0.26669678 0.84474291
0.38527350 0.76058853 0.34999333
0.35833113 0.76349449 0.89166082
0.84725169 0.26609287 0.39635699
0.89676051 0.26623725 0.84797028
0.85676320 0.75977397 0.39366787
0.84687831 0.76633867 0.90255679
0.14697338 0.23911574 0.39251675
0.12923015 0.20597384 0.95379019
0.10950294 0.73750676 0.35328218
0.23843799 0.61083260 0.85586874
0.64256694 0.24188449 0.39322786
0.64814640 0.23724637 0.89839561
0.64718281 0.73475634 0.39795813
0.60145102 0.74100624 0.86182098
0.38537155 0.36549327 0.25858070
0.34994495 0.39389317 0.75955611
0.35943675 0.89756113 0.25748424
0.40336538 0.85270699 0.76787987
0.85770056 0.39457884 0.26241961
0.86858339 0.39240221 0.75782180
0.90418042 0.84944845 0.26620482
0.89477439 0.84705466 0.76592042
0.35356399 0.10014282 0.23536188
0.38989635 0.23790264 0.64564806
0.34581901 0.59533796 0.23135190
0.40171228 0.64563347 0.73442088
0.85470069 0.11494182 0.24007767
0.86878618 0.11354443 0.73574008
0.98609077 0.64745128 0.14893121
0.88320418 0.64585002 0.73868180
0.10763967 0.14212932 0.26090346
0.11903949 0.20633730 0.78954082
0.15013149 0.60038170 0.26198657
0.11246074 0.64912512 0.76178191
0.66035422 0.10495519 0.27305340
0.60911709 0.14932839 0.76030605
0.60919785 0.64755444 0.25824807
0.60306869 0.63852308 0.76154426
0.10721887 0.35925273 0.23701747
0.14973322 0.39456497 0.73348187
0.11007484 0.86320793 0.24023873
0.11434317 0.85438817 0.73832591
0.64323517 0.39768047 0.23400738
0.61848756 0.36408211 0.74112044
0.51747337 0.85458932 0.14684742
0.60123448 0.86321134 0.73810124
0.26269075 0.40182111 0.35058494
0.25831513 0.35346079 0.88754991
0.26187729 0.89543533 0.35659596
0.26212092 0.89195636 0.85551209
0.76113919 0.39350199 0.36798212
0.76337873 0.39403630 0.85426866
0.76502834 0.89463789 0.35065999
0.76026777 0.89074293 0.85747124
0.23634466 0.37427365 0.12964475
0.23520929 0.35672189 0.59404075
0.23708908 0.85198879 0.10739203
0.23938027 0.90082223 0.64964533
0.74048130 0.35818287 0.11212651
0.73931696 0.37760829 0.62695823
0.63777248 0.88865577 0.24191263
0.73283568 0.89770639 0.65372596
0.26511231 0.14597346 0.10136150
0.26301668 0.14238612 0.60430995
0.25960846 0.64624146 0.10404875
0.26566155 0.59624704 0.64864967
0.75876937 0.15161627 0.11022363
0.76229731 0.10442019 0.63468356
0.84930800 0.60347572 0.23098179
0.86055781 0.74321619 0.60685850
0.23493194 0.09877257 0.35136332
0.24108661 0.12985887 0.87657091
0.23308009 0.64701096 0.39557594
0.13392457 0.51315336 0.85579784
0.71412528 0.12978594 0.44945924
0.73876038 0.11506838 0.86161295
0.73892410 0.61194478 0.35902645
0.73361846 0.60387753 0.84866016
0.00118920 0.98912967 0.00154886
0.99749886 0.00019657 0.49694737
0.99155713 0.50014720 0.99410601
0.00329628 0.50224001 0.49249122
0.49962572 0.01037063 0.00434754
0.49687193 0.00052392 0.50573175
0.50351742 0.50202850 0.00203707
0.49123713 0.50230799 0.50177627
0.01009952 0.24875164 0.24783591
0.99629605 0.24421129 0.74708884
0.00942835 0.75080291 0.24856751
0.00081865 0.74591572 0.74456309
0.49503910 0.25555344 0.24198519
0.50060717 0.24754200 0.74083899
0.49970798 0.75093397 0.25380628
0.50895874 0.74997042 0.74785924
0.25528214 0.99703419 0.25376883
0.25849274 0.99587125 0.75703492
0.24460687 0.49581878 0.24298142
0.24866018 0.49998399 0.75701702
0.75406271 0.99614044 0.24946688
0.75246094 0.00366961 0.75933461
0.74949107 0.49661981 0.26213705
0.75266329 0.49229243 0.74754164
0.24766847 0.25819612 0.99780651
0.24247774 0.24272175 0.50294925
0.25986890 0.75111845 0.00019273
0.25369054 0.74798924 0.50276418
0.74791803 0.25406836 0.00453376
0.74778880 0.25356791 0.50066878
0.74822883 0.75021169 0.01070660
0.75570070 0.75231876 0.50028575
0.12476156 0.12659034 0.37475031
0.12621742 0.12465777 0.87173794
0.12209185 0.62451220 0.37207899
0.12465332 0.62639910 0.87420742
0.61998214 0.12760484 0.38036224
0.62512871 0.12683212 0.87276370
0.62428226 0.62488012 0.37093412
0.62203378 0.62658018 0.87417611
0.37549603 0.37548698 0.37315033
0.37141477 0.37513614 0.87216964
0.37549031 0.87422268 0.37002045
0.37537940 0.87634567 0.87860652
0.87469282 0.37695689 0.37660355
0.87661437 0.37742880 0.87143453
0.87526246 0.87319321 0.37639267
0.87425918 0.87595795 0.87588197
0.37772547 0.12435262 0.12444717
0.37570462 0.12503836 0.62358571
0.37341970 0.62435165 0.12174751
0.37528972 0.62404889 0.62330596
0.87272829 0.12748374 0.12522648
0.87615391 0.11956498 0.62221842
0.87577053 0.62583147 0.12077327
0.87328761 0.63048062 0.62482043
0.12227539 0.37318455 0.12352457
0.12383768 0.37493556 0.62216535
0.12572544 0.87587737 0.12644897
0.12943832 0.87061815 0.62432074
0.62640779 0.37637595 0.12207934
0.62454145 0.37667875 0.62730915
0.62890283 0.87703223 0.12788162
0.62232588 0.87559883 0.62521152
0.05310390 0.44001281 0.30670042
0.05691319 0.44132257 0.80223916
0.05388791 0.94266518 0.31121089
0.06307484 0.94094707 0.80617174
0.55453868 0.44157821 0.30407448
0.55660811 0.44263481 0.81008237
0.56021297 0.94410928 0.31334327
0.55242603 0.94225106 0.81216247
0.44319418 0.05926269 0.30951234
0.43990920 0.06124724 0.80377823
0.44010478 0.56041264 0.30110273
0.44060861 0.55877412 0.80974774
0.94211427 0.06282466 0.30679883
0.94409576 0.05302891 0.80504636
0.93813393 0.55804201 0.30068327
0.94208211 0.56132095 0.80575991
0.44090397 0.44449935 0.18554693
0.43966187 0.44069152 0.69424721
0.44947771 0.94318780 0.19250114
0.44214055 0.94079498 0.69185735
0.94177761 0.43913054 0.18742211
0.94418267 0.44869517 0.68492233
0.93885716 0.94313904 0.19450862
0.94369752 0.93254224 0.69195503
0.05901617 0.05527499 0.19069025
0.05911503 0.05297271 0.68961899
0.05798447 0.55668997 0.18982385
0.06074823 0.56347975 0.69225542
0.56520398 0.06064908 0.19884322
0.56113334 0.05626326 0.69353762
0.55986567 0.55876526 0.18897295
0.55440252 0.55699987 0.69091650
0.30862137 0.05666991 0.44140290
0.31211296 0.05895603 0.94532415
0.30488895 0.55633624 0.43593486
0.30576580 0.56049038 0.94262223
0.80859340 0.05506524 0.44378256
0.80894552 0.06052991 0.94181920
0.80838887 0.56033903 0.44352820
0.80654403 0.56061899 0.93817922
0.30392180 0.43932407 0.05384977
0.30623136 0.44383763 0.55612263
0.30776171 0.94254593 0.06319918
0.30874034 0.93766885 0.55523407
0.80918135 0.44155840 0.05352344
0.80924032 0.44622056 0.55897070
0.80504053 0.94301175 0.05603379
0.80533442 0.94128227 0.56558496
0.18915998 0.43989574 0.44189881
0.18924364 0.44299159 0.93770257
0.19084201 0.94301312 0.44051273
0.19383345 0.94580513 0.94195090
0.68797433 0.44606431 0.44513255
0.69275135 0.44062917 0.93906503
0.69517067 0.93682671 0.44320282
0.68966748 0.94672225 0.93987171
0.19135638 0.05952440 0.05624831
0.19315541 0.05390283 0.56051072
0.18886821 0.55744959 0.05652147
0.19147367 0.56080345 0.55500305
0.69146931 0.06080804 0.05855945
0.68942448 0.05917138 0.55169691
0.69183714 0.55870676 0.05248774
0.68969999 0.55957816 0.55971598
0.44163775 0.30900536 0.05634827
0.43770301 0.30941072 0.55885565
0.44293468 0.80835245 0.06388856
0.44028444 0.80455544 0.55550447
0.93956646 0.30806892 0.05738742
0.94284732 0.30757468 0.56179360
0.94444908 0.81164545 0.05817058
0.94245053 0.81029055 0.55187029
0.05590391 0.30640796 0.44058216
0.05836727 0.30544044 0.94053196
0.06128390 0.80715004 0.43949262
0.06059784 0.80760834 0.94120458
0.55867989 0.31457773 0.44660550
0.55739095 0.30990713 0.93871586
0.55927592 0.80793889 0.44126699
0.55995911 0.81449506 0.94760556
0.44762579 0.19504609 0.43893023
0.44049963 0.19661095 0.93846606
0.43961836 0.69251561 0.43800818
0.44559876 0.69755158 0.94276615
0.93585659 0.19588224 0.44255189
0.93791369 0.19537364 0.93791682
0.94436588 0.69009009 0.43999828
0.93908984 0.69764121 0.94001389
0.05570494 0.18848077 0.05141837
0.05474768 0.18847280 0.55648222
0.05533148 0.68971127 0.05563665
0.05932899 0.69458603 0.55806939
0.55873118 0.19417574 0.05587639
0.55667802 0.19635222 0.56029297
0.56189851 0.69441930 0.05937656
0.55992238 0.68995702 0.55187547
0.30856666 0.30505219 0.19100608
0.30507023 0.31107523 0.68523340
0.30978530 0.80549827 0.19164958
0.31195641 0.81055767 0.69570471
0.80975106 0.30697586 0.19493238
0.81211378 0.30650805 0.69014076
0.81190915 0.80990770 0.19397000
0.80519113 0.80954435 0.69367309
0.30675285 0.18899788 0.30783111
0.31253136 0.19508728 0.80211235
0.30472016 0.68601879 0.30448090
0.31505318 0.69069773 0.80773081
0.79977738 0.19159197 0.31422877
0.81107335 0.19116454 0.80629191
0.81330687 0.69086280 0.30691256
0.80349141 0.69568334 0.81186939
0.19254489 0.19027216 0.18991824
0.19232068 0.18882810 0.69141154
0.18929996 0.69263474 0.18965199
0.19968523 0.68950169 0.69233590
0.68868098 0.19489989 0.19594002
0.69542338 0.19182569 0.68812840
0.69858465 0.68913251 0.19171324
0.68971589 0.69114423 0.69283750
0.19357525 0.30851910 0.30698654
0.18946106 0.30436414 0.80350825
0.19398921 0.80754787 0.30774979
0.19458132 0.80291238 0.81111173
0.69090922 0.31381498 0.30868708
0.69517188 0.30494014 0.80827635
0.69488589 0.80527069 0.30925977
0.68687642 0.81037828 0.80713362
0.99891034 0.00141198 0.25064933
0.00167248 0.99382584 0.74673860
0.99841997 0.49845931 0.24582919
0.00059734 0.50405466 0.74716759
0.50403474 0.00230106 0.25318561
0.49900953 0.00036883 0.74968407
0.49909287 0.50144767 0.24493922
0.49771160 0.49969854 0.75151178
0.25245466 0.00067422 0.00234583
0.25086026 0.99829663 0.49971390
0.24656509 0.50013626 0.99758310
0.24751573 0.50050102 0.49688511
0.74842151 0.00364759 0.99869636
0.75092061 0.99693297 0.50186448
0.75098445 0.49992299 0.99617260
0.74916636 0.50292020 0.50121502
0.99692948 0.25065067 0.99835920
0.99794277 0.24995851 0.50045258
0.00005975 0.75203721 0.99924437
0.00161452 0.75003875 0.49680441
0.50032466 0.25169105 0.99784323
0.49987407 0.25503855 0.50203080
0.50266158 0.75409493 0.00402470
0.49950964 0.74873981 0.49629985
0.24967635 0.24777819 0.24947998
0.25091443 0.25065674 0.74474187
0.24930969 0.74835968 0.24816286
0.25540298 0.74916367 0.75148290
0.74879920 0.25190417 0.25373568
0.75309632 0.24882966 0.74780574
0.75451470 0.74959239 0.25009912
0.74582823 0.75135889 0.75072289
Direct configuration=      2
0.11512078 0.01424177 0.38644859
0.13500880 0.03864070 0.79302360
0.11585805 0.51141206 0.38611119
0.01430538 0.60531305 0.90193717
0.60508091 0.01456357 0.39039744
0.62882735 0.02960436 0.81079599
0.63593489 0.51275533 0.35569649
0.62149001 0.51453901 0.88034532
0.39913123 0.49126214 0.39031949
0.38320209 0.48782779 0.89824843
0.39826226 0.98458182 0.40049119
0.35903144 0.99015385 0.86435491
0.89090490 0.49224101 0.38208468
0.89794931 0.48432784 0.89869021
0.86193862 0.99053094 0.35884440
0.85711121 0.99090557 0.85363258
0.38989354 0.01040178 0.10097404
0.35321366 0.10730254 0.73605338
0.39498648 0.51622618 0.09635044
0.39327114 0.51125772 0.61078498
0.85265234 0.01444151 0.14292375
0.89496074 0.01149853 0.59824449
0.90028258 0.51757480 0.09613649
0.76257540 0.65011380 0.60131997
0.14631707 0.48234471 0.14811670
0.14171330 0.49153413 0.63978866
0.15099058 0.98630146 0.15020095
0.10453034 0.98334911 0.60127833
0.60488196 0.48509031 0.09959972
0.64121466 0.49026463 0.64209460
0.61507637 0.99344345 0.11858836
0.61153540 0.99183751 0.61050378
0.35327031 0.15101419 0.01598710
0.37179655 0.01149399 0.62466375
0.34687641 0.65534763 0.01574717
0.35152850 0.64754505 0.51550306
0.89185838 0.10704221 0.01187502
0.85270833 0.14904233 0.51549673
0.76084468 0.63084572 0.11742940
0.89571907 0.60537161 0.51590920
0.39012118 0.38895747 0.48855754
0.36226015 0.35490442 0.99018397
0.34979958 0.84593809 0.48181775
0.34794754 0.85018444 0.98553955
0.89801471 0.39582635 0.48803412
0.85836324 0.36464588 0.98831971
0.84415343 0.86105360 0.48797850
0.88288308 0.89535071 0.98770894
0.10354287 0.39853814 0.00812548
0.10135728 0.40053007 0.51582412
0.12616886 0.87432582 0.01130138
0.14267694 0.85647065 0.50716681
0.63728277 0.35590440 0.01135943
0.60081820 0.40408521 0.51552985
0.73549858 0.90099686 0.14997239
0.64587146 0.86226215 0.50969450
0.14497465 0.13602499 0.49149515
0.11353997 0.04729842 0.95797219
0.13549972 0.64185113 0.48826810
0.14127329 0.63640767 0.99002136
0.60569505 0.11527245 0.48864827
0.60762665 0.09726532 0.98114265
0.60413482 0.60128498 0.48327456
0.63706983 0.64519778 0.98873013
0.01001688 0.38249184 0.11772061
0.01708941 0.35815624 0.65183995
0.01027930 0.89895780 0.10825340
0.01254230 0.85772377 0.62969671
0.51132838 0.36580888 0.13770744
0.51562478 0.35464822 0.64741994
0.61501042 0.89275681 0.01152657
0.51032984 0.89294134 0.59583180
0.48855572 0.35207663 0.35743957
0.48772568 0.39109992 0.89508306
0.48751850 0.86318764 0.35844849
0.48112891 0.90338120 0.90258965
0.98940322 0.35424604 0.35726698
0.98437156 0.34945443 0.85352497
0.98085392 0.89802899 0.40574060
0.98637482 0.89380402 0.88621120
0.01230168 0.11475540 0.40203122
0.01188206 0.13730388 0.86255944
0.01115440 0.61123593 0.39014048
0.14402909 0.74023710 0.89254805
0.51533902 0.15391792 0.34685073
0.51062966 0.13478155 0.86239957
0.51132583 0.64457307 0.35895009
0.50810167 0.60741313 0.90131701
0.48909535 0.11518221 0.11411036
0.49163569 0.13805238 0.64793533
0.48683823 0.63276887 0.13347586
0.48995678 0.61042449 0.60580563
0.99112690 0.10331950 0.11464116
0.99279808 0.11556124 0.61304553
0.85939044 0.64454665 0.01078765
0.85344486 0.51543916 0.64413491
0.12870080 0.25899514 0.11289914
0.13719029 0.26335704 0.61557115
0.10324939 0.76368470 0.13596644
0.14875087 0.75833385 0.60877850
0.60790720 0.26022188 0.14818462
0.65126842 0.26516740 0.59695307
0.64952639 0.76917619 0.09946198
0.63744988 0.76347206 0.61124212
0.39381650 0.23349901 0.14999496
0.40035653 0.11167931 0.51233121
0.38873287 0.73810054 0.15280827
0.39529960 0.73841616 0.64029616
0.90169559 0.23639387 0.14683860
0.88907575 0.23849237 0.63358222
0.88300626 0.74178626 0.13776219
0.98841736 0.63620423 0.63792829
0.34922785 0.26575292 0.39859019
0.40168058 0.26581088 0.85133329
0.38688885 0.76234570 0.35005555
0.39888538 0.76545856 0.85624995
0.85296250 0.26928510 0.39677358
0.85219810 0.26165439 0.88851582
0.85909429 0.76164352 0.38539683
0.85424117 0.76751831 0.89554779
0.14756479 0.24158200 0.39539571
0.12912132 0.20853464 0.95221023
0.09754175 0.73505916 0.34924005
0.23852681 0.60921543 0.85215267
0.64385682 0.24261571 0.39374260
0.65178635 0.23480268 0.90766033
0.64761973 0.73524633 0.39978634
0.60329733 0.74248729 0.86506030
0.38486764 0.36475350 0.26012809
0.35020964 0.40282349 0.76704472
0.35666593 0.90164508 0.25958306
0.37280028 0.87871817 0.76031659
0.88334276 0.36970978 0.26095948
0.86392153 0.39163767 0.76142541
0.90162993 0.85507633 0.26641228
0.89214007 0.85525336 0.76259916
0.36226423 0.10230411 0.24028040
0.38875862 0.23927890 0.64208915
0.35398560 0.59819578 0.23671256
0.39487046 0.63462829 0.73993008
0.86590073 0.11876903 0.24033423
0.89624737 0.13741686 0.73727134
0.98841755 0.64151542 0.14289687
0.87604567 0.63106403 0.74273617
0.09657444 0.15201458 0.26854334
0.12032734 0.20385269 0.78602924
0.14426562 0.60511122 0.26346904
0.10016051 0.65181604 0.76707901
0.65417273 0.10411295 0.26599179
0.61580663 0.18947784 0.77240741
0.61409810 0.64120916 0.25837930
0.60357587 0.64035183 0.76232922
0.10715245 0.35350914 0.23435708
0.14878814 0.39041093 0.73946543
0.10379356 0.86122974 0.23913769
0.10694363 0.85233048 0.73412102
0.64608424 0.39959307 0.23404174
0.63724463 0.38115625 0.73920381
0.51042035 0.88012721 0.11924096
0.59311970 0.85468206 0.73258409
0.26425488 0.40401657 0.35194592
0.26067626 0.35144590 0.89268307
0.25927886 0.89071665 0.35863535
0.25771504 0.88686497 0.86183353
0.76475515 0.39719381 0.35954197
0.75973307 0.39331836 0.85768787
0.75938624 0.89536494 0.34878825
0.75586262 0.88887824 0.86273208
0.23738643 0.36090666 0.10794068
0.23991455 0.35858076 0.60026459
0.23321920 0.85146717 0.10870611
0.23674609 0.89722887 0.64525852
0.73949855 0.36143277 0.11223982
0.74177366 0.38411643 0.63009833
0.60434714 0.85032176 0.23597918
0.73133777 0.90050834 0.65187315
0.25964536 0.11536626 0.13588395
0.26749022 0.14497398 0.60163338
0.25863852 0.61229735 0.13585058
0.26639629 0.60248309 0.64856228
0.76716242 0.15521813 0.10011110
0.76732221 0.10012141 0.64877570
0.85378439 0.59899857 0.23391132
0.88394029 0.74253082 0.63314452
0.23664254 0.10387788 0.35326548
0.23979186 0.13120648 0.87925515
0.23660311 0.64333300 0.38798024
0.13496351 0.51228310 0.85996299
0.73820034 0.13719952 0.39545328
0.73747933 0.10899591 0.85948159
0.73785163 0.61152581 0.35839150
0.73387049 0.63779234 0.88348321
0.99227200 0.99654713 0.00347274
0.00550721 0.00697448 0.50127772
0.99719254 0.49657067 0.99690322
0.99747553 0.50401189 0.48690194
0.50655388 0.99817609 0.01364710
0.50593484 0.00654522 0.50182428
0.49813118 0.49890799 0.99417994
0.49536819 0.50250779 0.50419147
0.00104204 0.26050727 0.24754918
0.99480005 0.24829999 0.74937872
0.00222268 0.75482942 0.23933982
0.99515202 0.75362317 0.73459319
0.49618040 0.26010123 0.24508624
0.49554381 0.24617472 0.74466025
0.49781254 0.74927337 0.25298022
0.49701747 0.74588730 0.75277429
0.25489250 0.00393852 0.25211936
0.26254475 0.99400091 0.75317577
0.24584120 0.50786942 0.24601755
0.24236145 0.50055804 0.75208250
0.75874444 0.00377556 0.25234261
0.75160592 0.00162300 0.75582980
0.74579797 0.50288049 0.26217528
0.74900496 0.48325559 0.74356860
0.25149400 0.25400416 0.00197688
0.24406535 0.24679054 0.50584502
0.24105366 0.75481485 0.00048454
0.24343924 0.74531892 0.49778831
0.75147743 0.26173170 0.00077795
0.75033315 0.24543497 0.49219889
0.74771187 0.73662318 0.99736891
0.74458657 0.75639519 0.50151747
0.12560203 0.12828291 0.37881082
0.12542502 0.12497520 0.87149208
0.12363236 0.62557101 0.37521116
0.12619689 0.62683558 0.87680473
0.62491889 0.12831487 0.37573681
0.62462336 0.12919043 0.87070366
0.62397349 0.62592033 0.37228339
0.61925583 0.62897180 0.87617193
0.37615079 0.37766304 0.37485587
0.37388805 0.37484806 0.87765734
0.37345274 0.87509243 0.37147616
0.37193735 0.87656036 0.87535909
0.87773592 0.37862307 0.37507644
0.87216798 0.37401803 0.87420590
0.87053061 0.87618400 0.37628966
0.87164013 0.87879695 0.87400534
0.37457385 0.12236488 0.12628671
0.37863793 0.12566174 0.62505417
0.37268356 0.62663473 0.12545429
0.37795804 0.62493135 0.62659049
0.87782981 0.12526627 0.12544136
0.87893967 0.12397720 0.62489663
0.87507480 0.62756682 0.12405644
0.87373411 0.62809195 0.62764556
0.12393216 0.37313549 0.12068788
0.12829295 0.37748573 0.62635632
0.12243113 0.87685378 0.12597594
0.12670997 0.87125651 0.62143618
0.62510116 0.37342146 0.12397771
0.62729256 0.37606984 0.62507007
0.62496056 0.87856627 0.12561558
0.62162293 0.87727002 0.62215866
0.05814434 0.44172465 0.30451315
0.05672260 0.43853751 0.80667200
0.05346563 0.94072269 0.31429886
0.06037239 0.93980914 0.80383286
0.55557075 0.44037462 0.30444515
0.55903350 0.43986376 0.80985874
0.56139076 0.94123487 0.30611300
0.55213053 0.93827288 0.81035489
0.44583100 0.05768939 0.31389240
0.43877733 0.05665556 0.80600156
0.44395568 0.56104591 0.30510282
0.44137059 0.55394333 0.81300974
0.94504884 0.06342008 0.31245622
0.94495820 0.05477374 0.80569941
0.94460814 0.56299695 0.30319893
0.94321386 0.55788198 0.81132549
0.43895754 0.44636714 0.18807444
0.44111270 0.43914867 0.69536101
0.44336201 0.94662573 0.19187246
0.44365572 0.94100764 0.68718854
0.93952336 0.44716106 0.18899305
0.94289260 0.44602568 0.68956367
0.94053278 0.94652623 0.19588490
0.94182170 0.94001059 0.68714025
0.06276406 0.05739070 0.19822603
0.06255286 0.05504404 0.69150712
0.06059466 0.55762908 0.18834291
0.06026368 0.56091657 0.69644443
0.56004039 0.06391996 0.19712326
0.56338645 0.05649306 0.70058591
0.56035369 0.55678427 0.18862598
0.55541668 0.55670996 0.69368616
0.31108676 0.05845048 0.44375924
0.30977222 0.05952512 0.94753744
0.30927790 0.56015664 0.44079809
0.30449910 0.56354207 0.94432589
0.81242072 0.05855511 0.44564923
0.80885855 0.05983343 0.94199236
0.80877339 0.56247214 0.44216980
0.80726667 0.55795228 0.93990086
0.30881584 0.44242260 0.05578853
0.30971237 0.44502018 0.55831217
0.30402120 0.93813382 0.05809113
0.31057745 0.93664965 0.55530549
0.80752150 0.44637042 0.05966486
0.81058520 0.44589995 0.55564100
0.80304664 0.94364797 0.05896158
0.80283381 0.94381910 0.56261622
0.19338369 0.44180127 0.44428657
0.19289775 0.44160005 0.93906238
0.19295378 0.94351443 0.44175558
0.18805587 0.94892146 0.93947008
0.69049336 0.44577383 0.44263025
0.69096821 0.44117274 0.94291922
0.69263083 0.94645149 0.43985579
0.68720464 0.95244428 0.93899029
0.18850081 0.05803172 0.05773119
0.19702814 0.05420701 0.56294778
0.18825732 0.55335327 0.05918357
0.19431947 0.56141965 0.55821986
0.69342749 0.06457319 0.05891314
0.69236932 0.06318254 0.55790269
0.68861886 0.55890971 0.05572855
0.69211574 0.56107298 0.55808556
0.44351030 0.30331403 0.06035891
0.44229586 0.31025790 0.56032077
0.43452248 0.80846781 0.06180840
0.43967375 0.80778441 0.55421607
0.93887702 0.30719505 0.05757018
0.94710157 0.31386462 0.56174791
0.93961370 0.81111297 0.05560707
0.93755328 0.81212019 0.55120466
0.06079645 0.31195196 0.44390282
0.05643896 0.30511328 0.94049825
0.05526421 0.80784507 0.43752533
0.05574375 0.81054082 0.93934323
0.55994719 0.31272966 0.44560694
0.55746076 0.30497000 0.93947931
0.55808102 0.80876565 0.43947594
0.55154498 0.81362808 0.94553325
0.44418088 0.19717284 0.43994516
0.44079635 0.19080212 0.94214828
0.43821544 0.69363009 0.43942386
0.43809262 0.69464325 0.94562926
0.94044233 0.19889235 0.44499966
0.93673264 0.19261951 0.93989307
0.93867335 0.69156667 0.44123262
0.93995091 0.69501693 0.93818174
0.05591773 0.18766803 0.05095249
0.06034458 0.19434629 0.55771766
0.05472787 0.69247777 0.05440503
0.05511367 0.69531102 0.55751709
0.56260786 0.18976940 0.05509128
0.55786822 0.19554499 0.56107487
0.55657305 0.69772829 0.06121488
0.55837546 0.69218767 0.55289961
0.30668921 0.30670999 0.19020807
0.30899421 0.31349623 0.69243110
0.30478445 0.81135087 0.19418117
0.30774962 0.80692242 0.68881299
0.81092110 0.30676460 0.19112836
0.81167779 0.30801941 0.69180964
0.80780943 0.81436062 0.19511132
0.80302529 0.81146732 0.69140144
0.30834945 0.19242668 0.30848084
0.31329758 0.19483935 0.80699211
0.30541542 0.69032807 0.30348032
0.31177496 0.69346909 0.80802730
0.80796694 0.19493284 0.31174124
0.80999768 0.18811590 0.80482493
0.80877355 0.69142455 0.30341732
0.80465342 0.69798849 0.80940220
0.18823966 0.19229266 0.19563790
0.19698333 0.19040126 0.69195329
0.18753923 0.69394496 0.19016975
0.19310324 0.68750540 0.69477000
0.69527794 0.19166827 0.19287711
0.69642460 0.19161089 0.68600927
0.69164118 0.69721484 0.18805754
0.68983867 0.69153737 0.69161430
0.19419203 0.31149334 0.30886845
0.19045374 0.30237619 0.80810232
0.18757963 0.80692669 0.30879034
0.19147724 0.80668481 0.80487436
0.69311866 0.31235762 0.30637893
0.69191409 0.30031349 0.80760210
0.69015279 0.80636669 0.30932509
0.68407658 0.81066707 0.80451831
0.00034107 0.00216738 0.25473261
0.00123327 0.99643975 0.74523970
0.00134117 0.50160790 0.24700049
0.00053112 0.50095358 0.75124293
0.50234519 0.00212556 0.25176562
0.49836680 0.99780726 0.74985490
0.49984780 0.50094274 0.24674454
0.49917555 0.49745473 0.75289531
0.24851291 0.00004748 0.00160953
0.25337923 0.99892821 0.50061021
0.24867527 0.49996291 0.99904585
0.25144116 0.50269238 0.49953394
0.74766953 0.00383479 0.99952938
0.74939679 0.00290937 0.50096767
0.74915049 0.50144985 0.99927760
0.75031630 0.50356670 0.49901519
0.99605425 0.24948768 0.99838834
0.00193615 0.25448211 0.50170778
0.99738410 0.75252464 0.99764059
0.99711404 0.75149338 0.49708609
0.50126958 0.24705384 0.99984235
0.50083916 0.25331110 0.50147828
0.49546739 0.75337364 0.00372345
0.49886651 0.75047793 0.49614314
0.24940036 0.25036346 0.25092175
0.25344368 0.25137902 0.74845912
0.24585214 0.75076701 0.24908492
0.25196860 0.74858321 0.74890736
0.75132810 0.25178066 0.25106292
0.75340610 0.24752529 0.74677814
0.75001126 0.75229795 0.24912443
0.74513727 0.75279553 0.74916421
Direct configuration=      3
0.13702131 0.01320792 0.35741163
0.13484474 0.04081953 0.79056318
0.11337758 0.51172695 0.39297745
0.01345741 0.60452580 0.89559106
0.60339027 0.01354261 0.39298171
0.62729065 0.03519003 0.80148597
0.64054659 0.51322660 0.35864682
0.61285382 0.51008772 0.89952547
0.40340294 0.49036682 0.39164024
0.39762926 0.48266470 0.90365955
0.39796689 0.98532037 0.40213531
0.35546328 0.98670294 0.85896259
0.88759218 0.49078989 0.37581885
0.89256032 0.48622002 0.89391926
0.85949391 0.99148191 0.35399411
0.85075830 0.98632339 0.85069681
0.38970214 0.01290904 0.10393471
0.35264945 0.10913969 0.73728639
0.35330492 0.51237473 0.13617366
0.40035106 0.51345654 0.60807656
0.84838488 0.01910983 0.15124321
0.89347023 0.01070194 0.59927058
0.90353976 0.51826420 0.10038074
0.76330216 0.64902464 0.60190538
0.15087386 0.48361042 0.14820901
0.14352740 0.49110274 0.64108852
0.15114392 0.99244855 0.14334435
0.10209158 0.98170723 0.60531348
0.61639186 0.49032867 0.11198721
0.64527651 0.48849257 0.63990687
0.62420774 0.99222168 0.12839757
0.61255144 0.99096165 0.61265939
0.36408480 0.14684446 0.01197425
0.35947498 0.01172401 0.63389436
0.35781027 0.64351519 0.01111587
0.35288196 0.64941674 0.51687563
0.88777408 0.10828063 0.01191642
0.85318278 0.14769715 0.51503129
0.76837673 0.59906127 0.14948768
0.88650249 0.60728933 0.51098522
0.39054630 0.38963992 0.49051417
0.36857119 0.35266471 0.98924062
0.34949705 0.84669637 0.48505042
0.35629980 0.85364121 0.98912768
0.89802898 0.39684961 0.48658343
0.85341725 0.36191866 0.98985868
0.84335421 0.85277391 0.48303632
0.88317840 0.89270747 0.98916633
0.10842918 0.39213834 0.01159066
0.10375795 0.39912595 0.51573976
0.13579126 0.86480955 0.01242751
0.14258978 0.85513841 0.51038972
0.65292385 0.35181908 0.01788565
0.59856591 0.40224868 0.51594936
0.73609396 0.89648642 0.14979445
0.64437837 0.86210631 0.50979712
0.11834541 0.10825166 0.49182516
0.11935562 0.04180999 0.95816241
0.14421624 0.64926689 0.48626469
0.12448179 0.61678007 0.99082205
0.60756761 0.11347278 0.49127409
0.60637526 0.09618710 0.97870640
0.59802769 0.60057140 0.48294435
0.64041009 0.64586939 0.99035486
0.01230317 0.38603501 0.12007738
0.01595416 0.35818013 0.64813657
0.01360671 0.90286172 0.10534213
0.01064173 0.85507255 0.63211982
0.51209658 0.39320433 0.10356911
0.51771819 0.35473928 0.65000981