Li192 P32 S160 I32
1.0
20.433000 0.000000 0.000000
0.000000 20.433000 0.000000
0.000000 0.000000 20.433000
Li I S P
192 32 160 32
Direct configuration=      1
0.98492817 0.89279306 0.96065613
0.99451181 0.07895751 0.41500855
0.02873908 0.48675583 0.11345219
0.00389505 0.45663336 0.60856810
0.58527134 0.99021616 0.91889360
0.58182277 0.92324739 0.50715656
0.49592452 0.57343720 0.08648133
0.57919380 0.58695038 0.49373187
0.26244014 0.61563042 0.22201533
0.25381235 0.42084035 0.66652394
0.24408158 0.92414202 0.16335849
0.36142223 0.01880638 0.73908636
0.83424810 0.50385268 0.33503716
0.82819638 0.58129522 0.74361012
0.83399887 0.99182814 0.33652982
0.76233403 0.98355326 0.86678307
0.10758723 0.22649548 0.27372914
0.03173513 0.14304984 0.74991829
0.08416640 0.67473681 0.24539364
0.08068222 0.75921280 0.67468040
0.57999470 0.16771870 0.24123822
0.58171451 0.25368256 0.66862066
0.47772525 0.72634841 0.13990763
0.49225620 0.82928311 0.83521128
0.36393050 0.51180489 0.21455761
0.24361939 0.58197591 0.83443418
0.25411439 0.08097757 0.33475838
0.23578529 0.11315946 0.73795920
0.76607677 0.38958942 0.25936418
0.76952019 0.48371151 0.86703466
0.67421747 0.00366197 0.17140356
0.72095577 0.99501817 0.64138023
0.88541597 0.23581954 0.22523156
0.96988565 0.35747092 0.78615567
0.01681032 0.73259113 0.36525440
0.91240894 0.74586607 0.83467402
0.42060534 0.33430633 0.25496763
0.49859090 0.13707805 0.75194897
0.49120404 0.76605359 0.36450542
0.50370894 0.66161043 0.67332621
0.97834687 0.39488377 0.46096710
0.02770718 0.39117917 0.00179424
0.00554171 0.08989026 0.58003557
0.00779582 0.95864661 0.11430821
0.41844128 0.41683614 0.51172410
0.50703585 0.41042635 0.08020066
0.42869941 0.91338463 0.50941086
0.57292332 0.00538335 0.08101637
0.03004250 0.27565073 0.14272392
0.11129658 0.29079390 0.73926463
0.91433476 0.67109037 0.25149756
0.07507488 0.75370093 0.82870797
0.47478922 0.23523498 0.13618784
0.58413045 0.24686671 0.83583045
0.52231183 0.63667581 0.26960151
0.50459747 0.67781292 0.83331536
0.33497146 0.25101956 0.41647703
0.23210833 0.23338019 0.88455189
0.16451430 0.83952636 0.49699830
0.27672982 0.63468173 0.01813895
0.74368645 0.17196621 0.59094605
0.76891561 0.21215047 0.10755044
0.75017026 0.66420953 0.58055065
0.75619574 0.66366687 0.91844840
0.96703985 0.25790245 0.35935094
0.88794096 0.23091172 0.73131164
0.91211306 0.82907080 0.26009635
0.91644047 0.74576680 0.66358475
0.51340978 0.23121743 0.36168093
0.48812400 0.36481115 0.76763676
0.51430385 0.86256171 0.22487655
0.49163721 0.83459801 0.66667031
0.41294621 0.08423244 0.50168744
0.51125238 0.88377535 0.01712919
0.58548405 0.41688921 0.49415566
0.61321816 0.51972553 0.98661954
0.11214901 0.01018759 0.48244755
0.88648085 0.00011789 0.01723512
0.11318683 0.48600867 0.51542734
0.11066539 0.53304364 0.97670119
0.41758223 0.00834989 0.08072049
0.48633220 0.02046197 0.61649538
0.50688192 0.41648813 0.91816740
0.48362030 0.47876619 0.38759939
0.98869710 0.10852346 0.03946313
0.99219422 0.91364348 0.42619669
0.00524616 0.52582907 0.88829966
0.01566268 0.54231591 0.39714273
0.41091552 0.99422245 0.92058068
0.57558675 0.08854862 0.49696135
0.49154377 0.57770375 0.92511662
0.42646608 0.58163558 0.50828169
0.01357219 0.03620909 0.89271414
0.88581701 0.01611003 0.52579557
0.97266187 0.61005157 0.02477286
0.99408398 0.61007095 0.54830738
0.25095353 0.91161344 0.32847276
0.13606986 0.97220353 0.73565311
0.28527576 0.50446350 0.35890644
0.13397417 0.49918874 0.74633566
0.73753865 0.11088416 0.27209210
0.82872352 0.91537481 0.74466317
0.83648085 0.51179920 0.17299174
0.72594352 0.49227414 0.64091889
0.25331443 0.08345149 0.16966072
0.24400283 0.96907905 0.63936673
0.22441221 0.47168735 0.13821737
0.36258183 0.52569167 0.73778533
0.74223483 0.88856846 0.24385976
0.66925047 0.08563317 0.76084120
0.66496379 0.49262454 0.33448255
0.67136757 0.58611939 0.76085076
0.33376013 0.32722196 0.99143666
0.16336375 0.24668959 0.41907291
0.27583576 0.86102927 0.98595757
0.32549958 0.82590191 0.49184459
0.76349570 0.27635629 0.88773423
0.73864781 0.35477460 0.53610432
0.86305205 0.73737987 0.01303388
0.74554415 0.67091555 0.41769466
0.16818453 0.16399345 0.00154800
0.16744059 0.25877242 0.57827594
0.32728983 0.75327975 0.08952362
0.16278157 0.66535006 0.50437336
0.74287942 0.36055877 0.03826762
0.86013994 0.23201246 0.52450620
0.63658073 0.72826169 0.98711393
0.75404092 0.82948290 0.58892231
0.58181787 0.33102899 0.24362521
0.42202828 0.24967702 0.67385587
0.38464102 0.77445753 0.26400898
0.61084104 0.76243875 0.73368125
0.98302745 0.36555446 0.26596838
0.02176252 0.22793766 0.86016319
0.07541832 0.83891045 0.24864510
0.00891574 0.63742678 0.75676397
0.11347861 0.98121572 0.02252750
0.00360197 0.92196600 0.58812777
0.89332530 0.47175000 0.98335553
0.88576939 0.52511876 0.51496064
0.51189191 0.10954779 0.97288115
0.48088984 0.98516140 0.38874315
0.38955461 0.48069671 0.98747262
0.52893585 0.48498683 0.61344742
0.13606102 0.01027387 0.27197074
0.26918306 0.88944269 0.78678836
0.14209608 0.51918000 0.27803369
0.24411390 0.59111334 0.66967972
0.66104956 0.99574475 0.33451775
0.82936374 0.08219787 0.74845951
0.67068491 0.49568146 0.16652458
0.66277988 0.41719241 0.75534989
0.98079050 0.13489286 0.22962083
0.01274846 0.27529942 0.63781582
0.98959775 0.74522908 0.13762290
0.97599476 0.86265251 0.76511004
0.41416158 0.16790233 0.25291821
0.41220594 0.24932713 0.83167008
0.61076537 0.76304030 0.23321916
0.38493009 0.73029170 0.73292518
0.23772884 0.26219889 0.11309646
0.26020906 0.36637535 0.48517069
0.16362499 0.75521867 0.07664482
0.32732986 0.67913887 0.50789971
0.63680815 0.26890000 0.01866026
0.63459916 0.24669589 0.49397825
0.74605682 0.82957955 0.08485297
0.74160760 0.83353372 0.41831469
0.25869419 0.38879007 0.26937742
0.25654075 0.42637989 0.83348553
0.36339246 0.98944535 0.26151912
0.22948976 0.02659965 0.86326437
0.72915000 0.61020933 0.27146358
0.82021319 0.40634344 0.74593779
0.83136095 0.00427799 0.17507039
0.66654940 0.91415344 0.75842277
0.33448017 0.16982913 0.00233188
0.32518715 0.24778968 0.58047683
0.33072187 0.74269366 0.91371462
0.22164000 0.73498044 0.38604801
0.86705402 0.25785728 0.99116351
0.73746224 0.14475693 0.44402465
0.75080456 0.66739061 0.08775828
0.86275255 0.76681318 0.48872902
0.24570685 0.13646870 0.49334589
0.17400530 0.33681700 0.99444073
0.22871687 0.76705168 0.61367635
0.17188252 0.74215725 0.92373103
0.76985908 0.28561061 0.39165847
0.72243251 0.14035508 0.97450177
0.63593436 0.76095065 0.52086047
0.75036221 0.82779134 0.91864519
0.12588056 0.11869499 0.37704469
0.12763858 0.12776107 0.86754591
0.12325015 0.63152984 0.37336890
0.11474089 0.62178358 0.86718504
0.62297202 0.12884659 0.37199602
0.62147453 0.12144746 0.88230040
0.62329186 0.62310230 0.36824954
0.62396131 0.62320454 0.88572082
0.36975311 0.38262854 0.37828988
0.38114970 0.37900903 0.87157462
0.38193974 0.87629604 0.37161826
0.36887008 0.87110994 0.87799736
0.87631787 0.37258559 0.36557982
0.86806713 0.37213901 0.87954598
0.87021026 0.86793380 0.38364858
0.87347697 0.87739461 0.87264750
0.37643314 0.13027480 0.12667631
0.37777844 0.12211325 0.63172118
0.37084610 0.62458675 0.12637557
0.37373027 0.62766930 0.63199969
0.87938618 0.12600497 0.12846352
0.87328892 0.12786363 0.62196217
0.88005506 0.63667103 0.12312370
0.87368195 0.62276346 0.62077844
0.12436114 0.37627802 0.11997012
0.12241754 0.38052881 0.62388572
0.12087856 0.87863791 0.12286193
0.13113498 0.87842403 0.62756613
0.62908731 0.36965018 0.12125034
0.62627012 0.37960994 0.62261322
0.62011856 0.87572024 0.12977046
0.62563639 0.87136891 0.62965693
0.04970864 0.45343254 0.31803563
0.04738262 0.44480188 0.81013203
0.04947399 0.93711295 0.31748844
0.04580896 0.94862784 0.80949660
0.56058566 0.43468557 0.30489842
0.56319371 0.44702197 0.81544903
0.55691102 0.94306225 0.30403138
0.56095572 0.92881824 0.81620247
0.44868779 0.06339050 0.30352858
0.44777163 0.05078355 0.81653965
0.44385225 0.54923799 0.29940423
0.44953608 0.56854743 0.81151658
0.93490080 0.05722268 0.31163009
0.94264613 0.07293290 0.79796647
0.93588363 0.56909705 0.31090153
0.93096800 0.55832602 0.80338259
0.44713900 0.43262849 0.18545535
0.44959959 0.45296730 0.69777743
0.44683579 0.95018335 0.18517375
0.44454580 0.94108706 0.69760347
0.94360681 0.45216341 0.19292301
0.92985827 0.42972012 0.69667253
0.92984214 0.93461934 0.20188233
0.93378053 0.94539825 0.68859547
0.04965787 0.04436398 0.19542033
0.05918106 0.05062543 0.68345732
0.06043655 0.56484879 0.19912756
0.04324019 0.54767911 0.68361429
0.56773178 0.06201318 0.18744573
0.56465188 0.05044300 0.70295866
0.56166991 0.55304379 0.18793946
0.57007087 0.56212810 0.69738790
0.31408809 0.05398627 0.43763205
0.31192323 0.06414280 0.94494352
0.31872466 0.57128023 0.45204732
0.30730030 0.55017722 0.93636725
0.80638722 0.04952677 0.43962446
0.80219234 0.05262643 0.95410746
0.80136999 0.56153729 0.43684257
0.81397720 0.55942768 0.95048053
0.30197119 0.43161031 0.05046867
0.31025299 0.44647687 0.56133405
0.31335118 0.94739327 0.06351140
0.31555439 0.93212883 0.55094895
0.81473294 0.44949294 0.07058124
0.80264822 0.45218978 0.55800427
0.79924498 0.94045047 0.07302912
0.79496790 0.94397172 0.56183815
0.20205057 0.45955076 0.43879728
0.18328897 0.44270333 0.93349248
0.19673168 0.93835556 0.43402155
0.19916057 0.94716168 0.94757665
0.69191810 0.43602968 0.44083381
0.69925583 0.44275865 0.95640514
0.68159419 0.93889608 0.44029445
0.68968243 0.93307567 0.95005407
0.19468829 0.06214873 0.06295640
0.20056033 0.04593035 0.55554753
0.19501641 0.55330178 0.05480387
0.19367903 0.56313767 0.56302131
0.68133955 0.05734981 0.06077138
0.68521135 0.06421034 0.54795634
0.69332697 0.56315232 0.06609296
0.68347766 0.56215875 0.55195756
0.43777050 0.31351685 0.05195454
0.43303870 0.30663915 0.56654261
0.43414129 0.79909089 0.05506662
0.42740653 0.80553833 0.56709385
0.95505600 0.30988225 0.05486917
0.94573268 0.31243830 0.54874681
0.94875459 0.81350688 0.04679530
0.94589257 0.81346042 0.56592041
0.05582895 0.30274098 0.43090629
0.07027961 0.30121924 0.93846194
0.05908878 0.81245311 0.44631423
0.06661184 0.80749758 0.93539205
0.54637425 0.30946471 0.44643250
0.55703886 0.30912371 0.93676280
0.54948268 0.81203211 0.45609610
0.55014661 0.79882470 0.94154035
0.43722587 0.19102816 0.44632604
0.43469342 0.19520242 0.93644179
0.43544252 0.69478860 0.44739331
0.43314318 0.68270290 0.93491043
0.94194303 0.18497208 0.44856066
0.95429822 0.18568382 0.94840236
0.95116937 0.69074984 0.45783012
0.94588142 0.69098883 0.93884207
0.06904988 0.19290621 0.06534348
0.06332742 0.19692989 0.56000768
0.05968389 0.69203827 0.05395790
0.06747612 0.70106057 0.57024187
0.54928415 0.19448908 0.05123951
0.55309219 0.19306936 0.56256760
0.54777021 0.68146372 0.05421665
0.55034104 0.69095216 0.56480652
0.31038227 0.30439066 0.20216434
0.31658113 0.31432660 0.68352421
0.30236449 0.81799538 0.18860819
0.29854219 0.80711613 0.70257623
0.79960924 0.30348637 0.18422933
0.80057121 0.30155603 0.68420934
0.81086655 0.80727828 0.19333459
0.81422767 0.80556549 0.69293686
0.31355338 0.18518881 0.31732306
0.30690146 0.19353329 0.79684559
0.29831061 0.69993323 0.30044394
0.30192330 0.68530271 0.80990561
0.80513162 0.19906479 0.31036498
0.79985926 0.19095255 0.80465609
0.80961814 0.69055918 0.31136249
0.81093459 0.68705414 0.80941803
0.19605249 0.18765234 0.19960889
0.18798084 0.20895006 0.68735348
0.18599451 0.69926972 0.18299330
0.18156366 0.69249688 0.69686003
0.68914816 0.18571897 0.19404371
0.68110347 0.18653366 0.69107243
0.69464372 0.69188847 0.19298073
0.69654186 0.68971330 0.69306352
0.19388243 0.30027632 0.31572008
0.20395528 0.32003521 0.80483421
0.18275666 0.81424267 0.30309156
0.18541170 0.80415509 0.81867925
0.68775110 0.31131496 0.30542646
0.68582385 0.30701935 0.80350221
0.69207863 0.80512237 0.30850393
0.69549462 0.80473804 0.80839315
0.00000858 0.99898684 0.00403821
0.99877742 0.00254550 0.50267260
0.00297614 0.50214060 0.00065965
0.99902304 0.50175837 0.50332910
0.49825546 0.99661856 0.99680843
0.49782533 0.00348498 0.50239312
0.50127746 0.49532785 0.00177394
0.50292633 0.49704558 0.50049094
0.99690789 0.24934157 0.24931074
0.00190497 0.25348785 0.74980044
0.99833040 0.75161221 0.25223947
0.99341835 0.75068562 0.75063826
0.49847125 0.24837692 0.24905397
0.50124241 0.25122371 0.75462028
0.49759153 0.75049641 0.25044894
0.49766881 0.75201068 0.74718255
0.24971537 0.00005719 0.25224302
0.24770385 0.99900075 0.75148608
0.25299256 0.50187987 0.24708167
0.24893222 0.50473996 0.74755463
0.74884736 0.99978640 0.25770452
0.74747835 0.99825858 0.75345852
0.75067155 0.50072155 0.25297412
0.74741592 0.49712526 0.75392903
0.24895417 0.24835021 0.99820070
0.24866074 0.25144450 0.49623846
0.25388226 0.74742990 0.00185313
0.24000210 0.75166789 0.49935497
0.75122857 0.25003185 0.00033152
0.74841514 0.24506065 0.49884866
0.74952272 0.74657017 0.00165123
0.74829259 0.75195694 0.50230533
0.99025423 0.99246344 0.25811749
0.99292563 0.00462609 0.74423298
0.99605703 0.51107505 0.25503382
0.98598118 0.49514245 0.74787411
0.50650610 0.00645229 0.24404917
0.50605670 0.99110621 0.75985170
0.50482278 0.49153774 0.24349922
0.50898949 0.50860874 0.75707858
0.25611241 0.00658377 0.00587658
0.25827152 0.99143092 0.49341982
0.24673176 0.49296417 0.99285263
0.25768420 0.51155807 0.50504646
0.74162759 0.99491507 0.01056098
0.74135619 0.99753264 0.49595910
0.75501491 0.50539286 0.01185720
0.74305054 0.50361618 0.49494712
0.01330068 0.24727753 0.00174262
0.00381644 0.24811199 0.49702121
0.00657983 0.75110147 0.99254226
0.00680102 0.75548103 0.51080134
0.49360092 0.25446732 0.99260827
0.49115450 0.25057545 0.50714301
0.48947093 0.73936915 0.99561596
0.48988248 0.75073591 0.51041969
0.25484874 0.24295341 0.25959293
0.25565254 0.26056568 0.74198845
0.24092618 0.75900627 0.24261012
0.24059799 0.74626618 0.75812928
0.74317427 0.25032197 0.24862161
0.74197476 0.24741983 0.74428709
0.75382614 0.74866216 0.25182405
0.75551531 0.74737649 0.75102364
Direct configuration=      2
0.03588826 0.89122989 0.00289762
0.99391472 0.08053866 0.41431266
0.02986119 0.48771424 0.11363688
0.00601249 0.45558600 0.60729927
0.58678679 0.99131995 0.91968968
0.58558484 0.92096812 0.49859953
0.50468591 0.57753404 0.08847870
0.58257328 0.58258215 0.49311547
0.26266034 0.61561417 0.21990680
0.24913139 0.42031374 0.66789907
0.24120962 0.92559530 0.16226478
0.36620703 0.01391610 0.73230091
0.83335634 0.50512889 0.33700004
0.83143181 0.58047666 0.74770006
0.83235424 0.99271887 0.33720996
0.76372752 0.98466358 0.86567592
0.10597604 0.22827415 0.27473978
0.08605040 0.16569575 0.74141258
0.08504789 0.67560688 0.24475907
0.08257919 0.76028858 0.67313217
0.57909060 0.16715062 0.24876442
0.58142656 0.25454174 0.67193391
0.47869471 0.72773486 0.13973092
0.49092460 0.83329573 0.83290558
0.36388014 0.51139289 0.21848469
0.24856900 0.58285428 0.83586680
0.25321315 0.08250940 0.33546370
0.26104650 0.11360191 0.71626738
0.76309704 0.39195170 0.26379438
0.77058451 0.48442444 0.86857446
0.67101369 0.00920702 0.17455007
0.72330781 0.99289815 0.63909421
0.88254202 0.23846521 0.22816635
0.96146468 0.35200387 0.78348053
0.01725740 0.73559461 0.36412400
0.91525927 0.75169990 0.83467889
0.42260231 0.33726160 0.25705393
0.51167429 0.13850240 0.77076013
0.49120533 0.76634206 0.36356514
0.50666334 0.66338684 0.67239999
0.97944066 0.39420776 0.46227208
0.02769552 0.38890397 0.01013393
0.00614728 0.09082777 0.57862432
0.01582751 0.97524911 0.11541555
0.41842048 0.41791055 0.51378051
0.50660200 0.41041988 0.08045492
0.42876508 0.90347422 0.50290045
0.57350910 0.00474003 0.08085497
0.02911960 0.27306877 0.14293574
0.09610815 0.33282982 0.74942574
0.91456532 0.67337683 0.25038415
0.07793343 0.75110536 0.82483725
0.47645838 0.23534546 0.13799607
0.58714875 0.25325141 0.83775391
0.52301392 0.63780416 0.27158257
0.49650674 0.67746957 0.83506989
0.33629472 0.24679668 0.41682121
0.23150285 0.23178707 0.88611089
0.16928393 0.84086484 0.49551564
0.26995144 0.63628153 0.01684533
0.74318197 0.16338722 0.59159443
0.76049624 0.21645674 0.11275912
0.75183672 0.66308657 0.58137029
0.75723299 0.66538094 0.91774818
0.96674127 0.25966969 0.36011162
0.90433438 0.20522984 0.73822330
0.91550974 0.83370977 0.25610299
0.91686869 0.74700655 0.66239242
0.51236817 0.23678395 0.36494966
0.48717312 0.36539968 0.77230712
0.51325202 0.86378712 0.22440081
0.50149907 0.83207186 0.66742856
0.39287336 0.03733657 0.52642512
0.50565830 0.88558798 0.01377800
0.58711733 0.41937794 0.49681980
0.61163293 0.52150404 0.98521427
0.11257452 0.01413295 0.47772221
0.88811384 0.96937605 0.99964940
0.11363759 0.49183953 0.51579571
0.10747598 0.53143722 0.96882433
0.41576269 0.00996426 0.07835873
0.52376859 0.99428063 0.61316449
0.49853698 0.41912264 0.92124765
0.48255429 0.47707181 0.38990412
0.97595597 0.10944020 0.03408610
0.99398271 0.91474746 0.42491915
0.98275598 0.48583044 0.88999463
0.01277585 0.54106586 0.39608546
0.41223935 0.99571926 0.91939326
0.53397505 0.10593093 0.48490220
0.48885897 0.57651226 0.92416986
0.42981211 0.58766026 0.50982382
0.97829976 0.00597195 0.88852039
0.88671751 0.01480221 0.52324034
0.97288787 0.60871508 0.02049854
0.98978319 0.61226484 0.54319389
0.25346838 0.91275245 0.32695924
0.13792203 0.98764766 0.73444000
0.28122975 0.50569021 0.35889532
0.13398339 0.51412091 0.76203669
0.73955310 0.11281167 0.27535295
0.83236125 0.91756718 0.74340011
0.83637876 0.51391582 0.17585362
0.73095416 0.49262189 0.64121081
0.24788807 0.08656831 0.16905869
0.24383600 0.96713913 0.63619976
0.22214567 0.47326638 0.13769112
0.36222851 0.52094128 0.73874466
0.73813752 0.89130189 0.23911031
0.67271978 0.08610677 0.76099333
0.66249154 0.49757918 0.33411179
0.67248464 0.58570276 0.76065032
0.33393248 0.33335939 0.99183113
0.16424039 0.24244963 0.42072871
0.26933833 0.86426225 0.98437941
0.34918731 0.78249169 0.47896664
0.77170483 0.27344871 0.89047327
0.75314185 0.33417635 0.58047115
0.86446034 0.73944951 0.01253147
0.75164348 0.66806630 0.41847946
0.16812657 0.17212093 0.00493314
0.16900471 0.25710496 0.57875465
0.32638873 0.75372569 0.08817252
0.15560533 0.67032249 0.50071920
0.74170399 0.36134653 0.03749901
0.86138445 0.22965499 0.52602123
0.63705692 0.73266185 0.98442704
0.75217576 0.82950103 0.58757465
0.58348946 0.33062015 0.24551921
0.42214112 0.24895352 0.67634522
0.38503115 0.77655154 0.26314814
0.61256432 0.74393588 0.76072006
0.98026102 0.36690265 0.26587436
0.02465731 0.22127878 0.86021556
0.07658992 0.83973833 0.24603208
0.00593794 0.63751143 0.75433542
0.11006180 0.02793888 0.98187876
0.00542167 0.92384307 0.58639900
0.89052654 0.47423067 0.99566014
0.88498944 0.51907225 0.52019965
0.51285370 0.11140064 0.97414165
0.47795871 0.98247609 0.38649688
0.38760976 0.50993642 0.01858391
0.52934762 0.48681764 0.61452075
0.13537751 0.01286973 0.27562667
0.26721367 0.89229994 0.78469636
0.14065740 0.51940074 0.27620119
0.24504955 0.59081096 0.67306059
0.66150776 0.99792916 0.33539460
0.82871268 0.07841216 0.74658208
0.67194252 0.49613321 0.16638016
0.66288766 0.41842931 0.75846597
0.97768390 0.13779370 0.23214719
0.01630179 0.27296780 0.63837936
0.99254570 0.74374874 0.13593429
0.98480024 0.86723925 0.75864493
0.41440235 0.17012215 0.25415773
0.41087565 0.25061181 0.83237440
0.61151760 0.76587616 0.23278010
0.38645152 0.73207170 0.73135381
0.23905355 0.26588871 0.11388339
0.26098770 0.36392187 0.48305938
0.16188395 0.75512865 0.07478738
0.29128320 0.65095060 0.52737080
0.63582174 0.27136676 0.01773823
0.63634391 0.25894009 0.50697331
0.74521893 0.82759162 0.08694976
0.74489409 0.83254500 0.41727583
0.25724947 0.38950134 0.27063290
0.25559011 0.42205364 0.83170635
0.36089168 0.00191240 0.24758837
0.23870744 0.03467735 0.85827465
0.72912411 0.61295059 0.27046326
0.82088696 0.40711852 0.74805845
0.83151841 0.00634307 0.17258265
0.66675370 0.91248359 0.75682235
0.33544858 0.17402835 0.00360092
0.32589433 0.25488559 0.58097133
0.33102156 0.74521701 0.91359203
0.22221952 0.73329398 0.38435917
0.86442639 0.24268356 0.01219454
0.73033780 0.14261266 0.45269555
0.75151684 0.66800929 0.08677381
0.86429379 0.77153043 0.48641564
0.26454985 0.13662493 0.51294154
0.17181132 0.33742736 0.99396084
0.23120739 0.77253990 0.61169342
0.17355388 0.73974191 0.92051586
0.76672985 0.29026834 0.40040051
0.72403459 0.13847435 0.97809370
0.63860857 0.74821247 0.50733227
0.75470590 0.83102673 0.91994460
0.12336834 0.11893067 0.37374064
0.13128412 0.12839087 0.87471650
0.12247244 0.63074188 0.37263083
0.11805819 0.62066337 0.86285108
0.62016032 0.12730077 0.37456893
0.62156134 0.12410034 0.88195457
0.62499423 0.62840289 0.37077143
0.62233175 0.62903555 0.88314789
0.36946509 0.38154325 0.38037083
0.37917313 0.37812244 0.86940943
0.38241600 0.87201579 0.37167030
0.36738315 0.87349918 0.87806271
0.87624172 0.37424236 0.36693828
0.87080234 0.38010497 0.88195387
0.87271933 0.86906893 0.38123317
0.87720277 0.88497551 0.87340225
0.37438174 0.13064054 0.12861837
0.36903034 0.12617571 0.62785727
0.37171472 0.62086708 0.12305710
0.37534592 0.62560624 0.63465279
0.87492024 0.13324711 0.13026753
0.87371772 0.12591385 0.62173160
0.88114331 0.63710355 0.12181494
0.87495219 0.62100299 0.62346644
0.12328113 0.37579318 0.12036109
0.12279779 0.37994185 0.62005369
0.11884842 0.87903809 0.11972096
0.13180290 0.87993226 0.62750177
0.62853587 0.37067209 0.12215824
0.62699438 0.37885103 0.62616197
0.62159561 0.87784232 0.13184221
0.62604817 0.87785994 0.62620533
0.04866404 0.45421958 0.31696948
0.04926760 0.43667238 0.80583273
0.04904896 0.93751818 0.31563226
0.04830196 0.95594168 0.80591210
0.56000527 0.43491340 0.30623532
0.56252403 0.44910801 0.81923063
0.55679936 0.94503231 0.30158820
0.56295506 0.93026351 0.81752671
0.44670101 0.06334227 0.30294230
0.44630155 0.04921066 0.81445019
0.44431844 0.54989972 0.30130841
0.44722240 0.56793108 0.81198280
0.93338350 0.05733932 0.31211114
0.93745477 0.07473881 0.79877366
0.93496692 0.57033436 0.30946058
0.93594536 0.55369466 0.80550390
0.44760786 0.43472648 0.18580577
0.45153884 0.45209141 0.69869752
0.44609508 0.95098542 0.18310864
0.45215610 0.93996768 0.69462165
0.94325103 0.45360596 0.19147988
0.93001526 0.42921415 0.69401375
0.93321986 0.93942288 0.19681258
0.93718641 0.95130646 0.68607537
0.05117808 0.05147404 0.19946471
0.05835190 0.06236204 0.68423157
0.06003137 0.56616214 0.19853581
0.04592404 0.54601916 0.68430101
0.56387440 0.06574633 0.18555426
0.56742381 0.05406608 0.70623611
0.56394441 0.55435036 0.19153171
0.57013772 0.56292582 0.69928771
0.31419627 0.05618601 0.43771171
0.31569672 0.06726741 0.94675259
0.32362290 0.56538329 0.45189449
0.30805016 0.55233676 0.93917126
0.80605766 0.05178720 0.43980422
0.80587210 0.05038209 0.95598776
0.80444458 0.55905469 0.44103282
0.81346959 0.56034916 0.95345475
0.30131764 0.43500652 0.05301915
0.30855287 0.44284875 0.56291465
0.30964561 0.94929644 0.06241818
0.31817536 0.93622746 0.54822349
0.80874121 0.45103941 0.07509927
0.80039624 0.44530495 0.55647001
0.79977062 0.93682847 0.07273808
0.79751178 0.94186446 0.55926185
0.20100217 0.45863969 0.44013563
0.18541748 0.44204556 0.93226889
0.19665658 0.93952789 0.43179644
0.19827006 0.95499942 0.94257382
0.68820785 0.43997651 0.43674992
0.69791772 0.44455381 0.95631241
0.68605388 0.93711894 0.43678638
0.69107018 0.93359156 0.94842701
0.19359653 0.06702462 0.06029358
0.19897758 0.04586065 0.55421450
0.19005851 0.55311191 0.05238829
0.19996943 0.56812291 0.56072053
0.68312930 0.05546433 0.06115961
0.68350714 0.06025371 0.54659623
0.69000597 0.56576502 0.06566673
0.68498644 0.55993793 0.55360854
0.43683469 0.31317729 0.05353711
0.43337163 0.30968702 0.56948894
0.43322280 0.79985944 0.05581828
0.43378748 0.80363853 0.56909210
0.95258998 0.30959654 0.05811830
0.94738158 0.31166310 0.55014308
0.95315628 0.81299154 0.04597066
0.94653806 0.81578744 0.56500547
0.05693131 0.30262852 0.43079865
0.06656177 0.30233352 0.93967455
0.06155577 0.81283050 0.44682410
0.06916345 0.80319875 0.93208613
0.54740704 0.31315967 0.45016412
0.55533775 0.31331561 0.93835827
0.55299356 0.80912886 0.45394348
0.54727524 0.80081401 0.94021186
0.44137132 0.19035432 0.45118284
0.43565434 0.19603420 0.93667910
0.43419230 0.69721281 0.44723868
0.43155581 0.68205019 0.93825999
0.94223825 0.18569913 0.44863614
0.94840813 0.18956542 0.94675914
0.95081760 0.69362008 0.45625643
0.94514516 0.69135947 0.93665000
0.06340433 0.18971574 0.06313913
0.06513222 0.19605040 0.55841901
0.06023523 0.68873970 0.05102165
0.06492377 0.70053102 0.57061867
0.55003141 0.19625772 0.05149607
0.55381023 0.19664379 0.56627696
0.55014125 0.68571406 0.05431222
0.55263420 0.68641230 0.56175898
0.31068779 0.30693615 0.20369981
0.31236724 0.31474151 0.68538647
0.30205646 0.81914277 0.18691623
0.30069162 0.80954963 0.70187884
0.79599929 0.30609087 0.18835683
0.80816748 0.30101385 0.68750265
0.81197244 0.80972278 0.19351877
0.81467229 0.80663801 0.69218473
0.31278890 0.18542558 0.31592517
0.30620881 0.19429912 0.79784730
0.29944932 0.69999697 0.29791218
0.30379273 0.68729556 0.80873589
0.80391245 0.20253741 0.31535558
0.80267322 0.18883474 0.80504282
0.81054157 0.69208993 0.31061612
0.81492524 0.68907592 0.81004062
0.19456598 0.19193671 0.19878656
0.18960827 0.20345780 0.68544438
0.18643869 0.69964910 0.18137036
0.18477019 0.69443155 0.69345652
0.68642159 0.18765738 0.20023026
0.68347777 0.18931811 0.69214984
0.69566372 0.69494844 0.19210452
0.69740596 0.69077794 0.69550983
0.19375488 0.30085402 0.31780844
0.19892094 0.31662534 0.80565149
0.18377061 0.81439119 0.30209095
0.18608435 0.80470583 0.81665377
0.68589917 0.31350748 0.31093467
0.69281838 0.30827521 0.80646084
0.69331175 0.80748052 0.30832910
0.69958555 0.80634058 0.81088104
0.99940916 0.00058453 0.00263959
0.00003480 0.00350912 0.50113325
0.00191085 0.49916384 0.00131583
0.99910177 0.50252335 0.50334052
0.49856088 0.99863769 0.99644175
0.49725411 0.99600948 0.50075747
0.50051395 0.49858236 0.00508052
0.50243796 0.49816775 0.50244729
0.99512130 0.25145804 0.25001517
0.00984404 0.25367772 0.75101396
0.99944032 0.75275159 0.25072926
0.99473025 0.75259101 0.74873091
0.49846318 0.24988788 0.25137356
0.50211295 0.25184156 0.75778327
0.49815699 0.75120509 0.24965695
0.49925270 0.75107774 0.74924057
0.24760346 0.00209594 0.25091933
0.25201894 0.00180937 0.74695644
0.25183950 0.50257965 0.24700486
0.24812244 0.50422096 0.74938358
0.74902489 0.00199455 0.25672782
0.74731819 0.99672694 0.75206372
0.74993339 0.50345619 0.25441413
0.74852462 0.49777109 0.75518399
0.25010972 0.25302456 0.99907871
0.25047550 0.25001219 0.49672026
0.25281290 0.74945875 0.00082724
0.24105361 0.74890666 0.49829285
0.74974435 0.24978391 0.00258687
0.74894132 0.24365897 0.50610708
0.75064092 0.74770175 0.00098519
0.75157649 0.75038737 0.50177128
0.99062244 0.99528959 0.25758377
0.99317022 0.01302802 0.74320265
0.99534285 0.51221923 0.25410413
0.98808264 0.49211790 0.74580277
0.50503769 0.00794059 0.24245792
0.50870959 0.99199900 0.75982290
0.50530670 0.49256094 0.24501443
0.50888205 0.50905847 0.75867906
0.25529880 0.01066610 0.00429935
0.25750478 0.99289890 0.49143946
0.24611797 0.49404193 0.99296138
0.25999686 0.50845530 0.50462524
0.74366016 0.99309568 0.01079591
0.74256521 0.99681650 0.49523392
0.75220151 0.50713014 0.01327624
0.74208790 0.50027489 0.49460141
0.00894576 0.24795179 0.00172075
0.00498058 0.24802231 0.49694395
0.00771498 0.74907074 0.99007711
0.00694669 0.75707987 0.51031733
0.49337320 0.25593021 0.99333334
0.49225511 0.25374106 0.51044643
0.48892296 0.74082082 0.99604067
0.49338674 0.74908905 0.50957934
0.25438811 0.24506683 0.25987510
0.25215088 0.25877812 0.74275233
0.24142840 0.75949516 0.24093141
0.24257743 0.74792098 0.75638052
0.74122934 0.25259073 0.25407467
0.74628005 0.24760511 0.74563188
0.75490936 0.75108223 0.25172239
0.75790648 0.74849013 0.75195507
Direct configuration=      3
0.99619625 0.89183284 0.96168597
0.99459079 0.07976086 0.41358043
0.02247533 0.48918909 0.11431207
0.00578866 0.45715067 0.61052946
0.58489678 0.99154835 0.92075628
0.58665797 0.92010284 0.50020913
0.50305072 0.57724938 0.08934702
0.58199463 0.58222819 0.49284851
0.26185005 0.61592346 0.22209417
0.24690316 0.41890286 0.67096557
0.24436495 0.92632169 0.16372548
0.36526623 0.01378353 0.73320331
0.83617190 0.50314347 0.33560630
0.82894788 0.58228976 0.74913922
0.83100778 0.99490412 0.33980107
0.75687959 0.98724666 0.86576902
0.10795278 0.23026657 0.27331866
0.08872359 0.16551870 0.74358697
0.08556890 0.67611741 0.24545941
0.08466718 0.75721179 0.67639040
0.57807561 0.16476593 0.24892978
0.59452301 0.25610666 0.68037423
0.47950466 0.72698940 0.14114536
0.49158595 0.83220173 0.83172717
0.36367063 0.51089121 0.21865550
0.24674249 0.58173541 0.83777646
0.25342417 0.08224213 0.33757192
0.25945533 0.11324151 0.72089378
0.76122555 0.39184136 0.26435993
0.77356196 0.48370583 0.86706718
0.66956214 0.00831387 0.17524326
0.72338742 0.98915186 0.63906485
0.88406754 0.23534373 0.23146863
0.92371717 0.32576520 0.75865059
0.01950523 0.73521352 0.36540143
0.91506620 0.74909735 0.83528461
0.42221646 0.33581889 0.25882614
0.51645693 0.13779906 0.77868673
0.48841305 0.76973448 0.36432302
0.50590501 0.66337233 0.67060735
0.98198072 0.39306079 0.46512306
0.04221409 0.39930267 0.00223497
0.00505482 0.08976557 0.58022930
0.00573587 0.96146303 0.11271407
0.41653171 0.42005966 0.51473171
0.50723585 0.41065644 0.08065664
0.42901768 0.90490783 0.50295825
0.57310819 0.99624107 0.07934862
0.02584225 0.28060121 0.14349960
0.08575495 0.33750563 0.75449769
0.91678822 0.67220866 0.25500092
0.07547104 0.74369624 0.82720808
0.47821863 0.23868198 0.13789895
0.58777808 0.25351117 0.83970788
0.52066790 0.63793642 0.27326838
0.49508311 0.67641331 0.83599122
0.33957637 0.24720417 0.42164872
0.22669588 0.23397493 0.88851732
0.16907749 0.84020514 0.49887412
0.26942034 0.63560682 0.01788112
0.74402567 0.15768132 0.58098521
0.76176623 0.22078939 0.11567232
0.75135079 0.66477388 0.58337737
0.75098306 0.66748349 0.91994828
0.96813460 0.25843491 0.36111941
0.92049965 0.17728202 0.74402301
0.91465546 0.83182871 0.26112373
0.91614457 0.75080692 0.66242721
0.51713928 0.23420325 0.36568810
0.48947707 0.36330243 0.76663987