Li192 P32 S161 Cl31
1.0
20.312311 0.000190 -0.000113
0.000190 20.312339 -0.000033
-0.000113 -0.000033 20.312424
Li Cl S P
192 31 161 32
Direct configuration=      1
0.12021315 0.23821183 0.37951733
0.16070141 0.01392103 0.84544046
0.09941446 0.73324057 0.36947616
0.15256412 0.50708221 0.84372094
0.67070318 0.15038607 0.48395809
0.51935699 0.08950895 0.90267384
0.55125663 0.60517214 0.46540027
0.59399517 0.50743851 0.89301817
0.15582705 0.01381411 0.33494215
0.11473522 0.14378615 0.76328028
0.23065446 0.62156510 0.38052064
0.23682643 0.65862059 0.90570186
0.62406761 0.11357775 0.26097954
0.65009549 0.01300076 0.84524679
0.70698738 0.64290610 0.46772186
0.72040483 0.61028381 0.84846141
0.00668278 0.10550354 0.38782673
0.24410562 0.14196932 0.89048172
0.10221382 0.50546213 0.38496500
0.10179954 0.73367570 0.84634852
0.60875867 0.00673777 0.40570264
0.74067670 0.12490365 0.86188400
0.70955314 0.61415221 0.28941115
0.58906460 0.74275176 0.85805052
0.09202376 0.15030082 0.25922806
0.13796589 0.13374930 0.99332872
0.09749623 0.59687685 0.49178515
0.04374757 0.62159592 0.79339943
0.62491728 0.23399835 0.36653320
0.59805735 0.24063553 0.85013178
0.62698130 0.74037957 0.36918800
0.63616173 0.64752125 0.98596959
0.23493497 0.13502670 0.38699836
0.01758606 0.09574047 0.90268856
0.10043225 0.63935568 0.26250607
0.20125140 0.61187117 0.77170265
0.51445061 0.10467755 0.40225023
0.64604580 0.15480377 0.98537039
0.53873788 0.63537533 0.29995494
0.49829238 0.60402590 0.91323492
0.09593922 0.09200502 0.48599789
0.14160569 0.23941973 0.89494516
-0.00042527 0.63267052 0.36707794
0.09189472 0.59592488 0.97229123
0.74179246 0.08408975 0.34551381
0.60160693 0.14659453 0.75485065
0.64227551 0.50999068 0.35822500
0.56937575 0.65411379 0.76783541
0.14074221 0.28412362 0.06095214
0.14904223 0.26035006 0.59069985
0.11839329 0.85308399 0.23045723
0.15570131 0.98477912 0.64420901
0.51233848 0.34448713 0.15512672
0.73110912 0.40573434 0.65979148
0.64567061 0.84725147 0.01067723
0.65998316 0.84601857 0.51967193
0.09757013 0.30669728 0.21129124
0.01597619 0.35094509 0.63358679
0.25060689 0.84999898 0.10555778
0.15305495 0.88814105 0.73932547
0.63481133 0.25498066 0.11627060
0.53207243 0.38856127 0.54379230
0.65699876 0.91363782 0.23269859
0.73718517 0.90386936 0.66998238
0.01064509 0.40486728 0.09854496
0.09893913 0.41018643 0.51316887
0.02298176 0.89044048 0.10451822
0.24105738 0.83044405 0.60450431
0.73948442 0.35222928 0.10436794
0.67402716 0.34226695 0.51914554
0.60441902 0.76971564 0.15758460
0.60591564 0.84306180 0.74681022
0.13151933 0.46488670 0.20844216
0.10870263 0.33641171 0.73118250
0.16508813 0.98167236 0.15246817
0.12405697 0.87255876 0.51256181
0.65863710 0.40114588 0.23567947
0.59706822 0.35989597 0.73270867
0.74253701 0.85341382 0.10691406
0.66444493 0.75452471 0.61564346
0.23861508 0.40464138 0.13918964
0.15937315 0.48060100 0.65550381
0.14557544 0.86277642 0.00219713
0.01283578 0.87636474 0.62633695
0.63686283 0.35102787 0.01069317
0.59636416 0.26148083 0.63909188
0.51117041 0.88271570 0.12522321
0.51571633 0.83277715 0.65322629
0.12106989 0.45484675 0.03405772
0.24726629 0.35370007 0.60562659
0.14633603 0.75138559 0.09700454
0.09679457 0.75814319 0.65622673
0.60902983 0.48564521 0.10879619
0.59806487 0.49078538 0.60396574
0.60102652 0.99038576 0.07897087
0.60757857 0.97601380 0.60437048
0.35103992 0.00858581 0.14993262
0.37417879 0.20458020 0.54134151
0.40319988 0.52224371 0.07757597
0.40337274 0.52120024 0.58777834
0.78373292 0.19390520 0.10458283
0.76610265 0.09847005 0.64647787
0.87823120 0.74567542 0.11626648
0.98469579 0.63246759 0.64185814
0.38838054 0.23875940 0.14789758
0.39116631 0.03269264 0.52039328
0.48758746 0.63972671 0.14170964
0.38142980 0.70391232 0.54125942
0.98602598 0.08189041 0.10269207
0.89613285 0.11746425 0.50542298
0.98553847 0.59217201 0.09425705
0.75582618 0.59607479 0.66312342
0.27799036 0.11873556 0.20762473
0.26433050 0.14537284 0.59914139
0.35299562 0.70902871 0.05168354
0.49334534 0.63665785 0.62761072
0.79733495 0.03914666 0.13452049
0.96863320 0.20317354 0.63003469
0.89839274 0.64735144 0.23501001
0.83726573 0.73165014 0.60626243
0.45719674 0.13395429 0.21055976
0.39170058 0.14324493 0.72218544
0.25900579 0.59324370 0.13960895
0.34540422 0.57003759 0.72799294
0.93003269 0.23146659 0.14737777
0.91227786 0.02070977 0.60159376
0.87191378 0.62521356 0.00010107
0.85763629 0.50731312 0.65592936
0.45012666 0.10190951 0.04784725
0.49119998 0.10663897 0.59780842
0.38583097 0.71284431 0.20666323
0.40112017 0.71513684 0.71591264
0.89061581 0.10743867 0.00800385
0.89221122 0.13421622 0.73394212
0.75988460 0.66011989 0.09913262
0.88252525 0.60284075 0.52181211
0.29459055 0.14041682 0.04500644
0.33860040 0.00447533 0.65886986
0.35172253 0.57282031 0.23581943
0.26700245 0.64947604 0.59528647
0.88673346 0.12472108 0.23777478
0.82172931 0.23344336 0.58957274
0.84652028 0.52061808 0.13898783
0.88999778 0.64024036 0.74587884
0.35349141 0.40545764 0.25501752
0.37548609 0.25848553 0.87921926
0.38239806 0.75202741 0.37088696
0.42968640 0.76766370 0.86057526
0.96034978 0.29590635 0.35008821
0.99324677 0.39319130 0.88673182
0.98859594 0.86000236 0.35955277
0.85294507 0.80327809 0.96470197
0.39188053 0.48646595 0.39762282
0.39394353 0.48948495 0.89511270
0.26531862 0.86362993 0.36755926
0.46220847 0.87114433 0.78803504
0.79653623 0.28164004 0.38684753
0.85137464 0.48731721 0.83124792
0.89137183 0.75893264 0.35731082
0.87067139 0.96151228 0.78990708
0.35662719 0.34770584 0.48251199
0.28610378 0.39375081 0.79548717
0.35535982 0.84581634 0.49011374
0.30128210 0.85806041 0.95537558
0.79006610 0.45987670 0.36947412
0.90811384 0.34335474 0.75410279
0.90424228 0.98329787 0.40897571
0.88575784 0.96203915 0.95983571
0.48900886 0.36600660 0.36257417
0.45811586 0.38235867 0.95832309
0.45886742 0.85172867 0.28701595
0.29653320 0.88236088 0.79491609
0.95898724 0.45243322 0.38683254
0.87260280 0.26386628 0.87861138
0.86055088 0.90980043 0.26271257
0.90375780 0.77322066 0.82769412
0.25906447 0.37909933 0.36721585
0.28957611 0.36645248 0.95705579
0.48500162 0.90741725 0.42163960
0.38156072 -0.00711277 0.87152204
0.86428992 0.37133468 0.48821879
0.76123819 0.38107058 0.86361989
0.76375344 0.90154586 0.35619481
0.76310216 0.89815388 0.85376916
0.39395027 0.26289706 0.32702289
0.43901357 0.36718747 0.78012195
0.35374687 0.97941870 0.33434626
0.45611342 0.89735630 0.96709399
0.86117532 0.37928521 0.25859079
0.87759092 0.38659735 0.98268001
0.84571498 0.84860692 0.48900501
0.99211915 0.88986024 0.88026114
0.98051341 0.02517754 0.99578916
0.98298869 0.03331901 0.48795588
0.01407255 0.50125097 0.01494909
0.02333857 0.49866211 0.47572190
0.50418003 0.00535062 0.00018441
0.50576274 0.01072964 0.48283752
0.48544843 0.49997619 0.97738938
0.50515614 0.50322454 0.52090653
0.00357616 0.24098977 0.24807897
0.00248784 0.26795061 0.72337340
0.99547923 0.72765068 0.29021014
0.00350483 0.72423106 0.75440087
0.47290931 0.25149477 0.23623426
0.53470333 0.25402043 0.74558087
0.49521525 0.73935405 0.24525322
0.25214096 0.00664487 0.24511548
0.24005348 0.97591218 0.74049066
0.25699414 0.49420863 0.22379685
0.23975038 0.50283569 0.75188044
0.75618625 0.98599502 0.26310425
0.75454286 0.98225240 0.76422793
0.73173610 0.49437083 0.27247577
0.77067079 0.49950796 0.74009050
0.22848030 0.23003648 -0.01324230
0.26529532 0.25205159 0.52947521
0.24771715 0.76604189 0.01471928
0.27845039 0.75580206 0.51761457
0.71939744 0.25703175 0.02513290
0.74755452 0.25160682 0.49360947
0.75527063 0.76211666 0.02677995
0.74595490 0.75470580 0.52349652
0.44278754 0.19640209 0.43244901
0.43979981 0.18154220 0.94805220
0.45569979 0.68853315 0.44312844
0.43413689 0.69405455 0.95658175
0.93931641 0.19979959 0.42747463
0.94525122 0.19349593 0.93746804
0.93124380 0.68864733 0.45184379
0.93278335 0.70404104 0.93285003
0.20060518 0.05517839 0.06064085
0.19181421 0.05444972 0.55065314
0.18686081 0.55881901 0.04990577
0.19400965 0.55501171 0.56043025
0.69602749 0.06476699 0.05777015
0.69261316 0.05553934 0.56097750
0.68885678 0.56189925 0.05368453
0.68860897 0.56133348 0.56354787
0.30879152 0.05033780 0.43223578
0.31662952 0.06338339 0.94722904
0.31118940 0.56186951 0.44503493
0.31004562 0.56751206 0.93977235
0.80934309 0.05656725 0.44289125
0.80703781 0.05530614 0.93434106
0.80208898 0.55852821 0.44625199
0.79951293 0.55638614 0.93004973
0.05346589 0.19422956 0.06250797
0.05674300 0.19269747 0.54770383
0.05351358 0.68745557 0.04739530
0.05390470 0.68887528 0.56343635
0.55315827 0.18394469 0.06189198
0.56471865 0.18784099 0.54573580
0.56068079 0.69821842 0.06552794
0.57204115 0.69261574 0.55434530
0.12130110 0.12220057 0.37239676
0.12994771 0.12359145 0.87683885
0.11592452 0.61995429 0.37647435
0.13326230 0.62211588 0.86612843
0.63059323 0.11828222 0.37530405
0.62671225 0.12734426 0.86988667
0.62849141 0.62539035 0.37651458
0.60782990 0.62496143 0.87786380
0.44296390 0.44496889 0.18200456
0.42629870 0.45504291 0.69344298
0.43691555 0.93582865 0.20245890
0.44367880 0.94053100 0.68944405
0.93057664 0.44512700 0.18351498
0.94684925 0.43585705 0.68482193
0.94879724 0.93771844 0.18473701
0.94661922 0.94762490 0.69202771
0.18029620 0.31404753 0.30573435
0.19587438 0.30680966 0.81031116
0.18618907 0.79497928 0.31059081
0.19763791 0.80295353 0.81147214
0.70030325 0.30468760 0.30607461
0.69155626 0.30951298 0.80167793
0.69405665 0.81544372 0.30411084
0.69090880 0.80455845 0.82254858
0.30195780 0.31412197 0.19229353
0.31505380 0.31467636 0.69961217
0.30750904 0.80156628 0.19917282
0.31642294 0.80665700 0.69861920
0.81267722 0.29445440 0.18508975
0.80863330 0.31169077 0.68492460
0.81602724 0.81355093 0.19447690
0.80367704 0.80341136 0.70090785
0.04771078 0.43547011 0.29894607
0.06503866 0.43159470 0.80030192
0.06647560 0.93420941 0.30403332
0.06753397 0.94468233 0.80605797
0.56000990 0.43555219 0.30106795
0.54157740 0.43779189 0.80708126
0.55705790 0.93598101 0.31196441
0.55810183 0.94553869 0.80539430
0.12402636 0.38192478 0.12513556
0.13067371 0.37120836 0.61997658
0.13574494 0.86938240 0.11814760
0.12834217 0.86880080 0.62678002
0.62562844 0.37195141 0.12602953
0.62242548 0.37598121 0.61985947
0.62668134 0.88011373 0.12254507
0.62999585 0.86590615 0.63286218
0.18175376 0.20112788 0.18735255
0.19508804 0.19550452 0.68796177
0.18784440 0.68278922 0.18995141
0.19374901 0.69350121 0.68482499
0.69517433 0.18090528 0.19072404
0.69526819 0.19141846 0.68491359
0.69327675 0.69568494 0.19328445
0.68595906 0.68384586 0.71028346
0.44394158 0.05949024 0.30997374
0.44727700 0.06624689 0.79986275
0.44514131 0.55357180 0.30908024
0.43862009 0.56818148 0.80931701
0.94452977 0.04617266 0.30564618
0.94954416 0.05895132 0.80726790
0.92957757 0.55131043 0.30836414
0.94931266 0.54966711 0.80678799
0.06661017 0.05234147 0.19035345
0.06771296 0.06197358 0.68784423
0.05095733 0.55775255 0.19059802
0.06442786 0.55447547 0.69184789
0.55357361 0.05249026 0.18887326
0.56206277 0.05784623 0.68185503
0.56183600 0.56057925 0.19515797
0.55724507 0.56013701 0.69476220
0.29812463 0.19398770 0.30382532
0.31290498 0.18816571 0.80328507
0.30697430 0.67930780 0.30502307
0.30702365 0.67966161 0.80226568
0.81005642 0.18485696 0.30984591
0.81285854 0.19558103 0.80159950
0.80668506 0.69104104 0.30685782
0.80918647 0.69081653 0.81946099
0.36996262 0.12312158 0.13264014
0.37586611 0.10911462 0.61143824
0.37342848 0.62369211 0.13195283
0.37869481 0.63016319 0.63125710
0.87804628 0.12647719 0.12338873
0.87475159 0.13109386 0.62033306
0.87414647 0.63026594 0.11731017
0.86910891 0.62157990 0.63412448
0.19309539 0.44190166 0.44072048
0.19631248 0.44237018 0.93629951
0.19083308 0.93597841 0.43374776
0.20655143 0.94010754 0.93441232
0.69224794 0.43976731 0.44715727
0.68464460 0.43938585 0.93940957
0.69672192 0.93633369 0.44903438
0.68536466 0.94378412 0.94146988
0.43993727 0.30715209 0.05736396
0.44708780 0.30333272 0.55471555
0.43687461 0.81121978 0.06555664
0.44924856 0.80554834 0.55764560
0.93811942 0.31128759 0.05520952
0.93648148 0.30202421 0.55563027
0.94614079 0.81693502 0.04971397
0.93394279 0.80450338 0.56740469
0.05108426 0.31745608 0.43550029
0.06285157 0.31307804 0.94941392
0.04910014 0.80627109 0.44836978
0.06183371 0.80750167 0.93403137
0.56530640 0.31275269 0.43981626
0.55191627 0.30419729 0.94162041
0.56723418 0.81504478 0.44226631
0.54929454 0.81391223 0.94669068
0.31120730 0.44592007 0.04929578
0.31488783 0.44028702 0.55322022
0.31748606 0.93780859 0.05348038
0.30842105 0.93905049 0.55372479
0.80355431 0.44500418 0.05442410
0.80453134 0.44128883 0.56602011
0.80789028 0.94592252 0.05456660
0.81478201 0.94365882 0.56532872
0.37418986 0.37441192 0.36822095
0.37252267 0.37399974 0.87623798
0.38100684 0.86853120 0.37708052
0.38323784 0.87725593 0.87473475
0.87178488 0.37349214 0.37316238
0.87767125 0.37730390 0.86750433
0.87559229 0.87398382 0.37616760
0.87779228 0.87886988 0.87553247
0.50659269 0.76210327 0.76089694
0.25785671 -0.00110072 -0.00096097
0.24931811 0.99463795 0.49214995
0.25166068 0.50605450 -0.00699363
0.25299536 0.49995692 0.49895803
0.74690596 0.00213299 -0.00341943
0.75498018 0.99812627 0.50514605
0.74396580 0.50124136 0.99387470
0.74642179 0.50028982 0.50722350
0.24036694 0.25609629 0.24809685
0.25470928 0.25172612 0.74857737
0.24661504 0.74041091 0.24916238
0.25302270 0.74638215 0.74817894
0.75278668 0.24085659 0.24825143
0.75117758 0.25256655 0.74286122
0.75394164 0.75502967 0.24894654
0.74721678 0.74674972 0.76145680
0.00630076 0.99217256 0.24543830
0.01054948 0.00484309 0.74663037
0.98969509 0.49946016 0.24625368
0.00526249 0.49187559 0.74478210
0.49971245 -0.00297298 0.25376875
0.50276828 0.00227739 0.74307604
0.50139549 0.49716987 0.24580199
0.49225418 0.50546019 0.75010691
-0.00034607 0.25226523 -0.00059851
-0.00229373 0.25231565 0.49094322
-0.00117488 0.75215251 0.99190543
-0.00825105 0.74672535 0.50807259
0.49736693 0.24407185 0.00304407
0.50461903 0.24938333 0.49184425
0.49702475 0.75368855 0.00884023
0.51158970 0.75216934 0.49882348
Direct configuration=      2
0.12738558 0.23952947 0.36832177
0.16705797 0.01448999 0.84835567
0.08701943 0.72792501 0.35527487
0.15202485 0.51186987 0.84572296
0.65832189 0.15435144 0.49485642
0.52321457 0.05437448 0.87875144
0.55682017 0.60652890 0.46619685
0.59843413 0.51270014 0.90221618
0.16780281 0.01037260 0.35372375
0.12627502 0.13242667 0.75912272
0.22724218 0.59629417 0.34716771
0.23720739 0.67460943 0.90090687
0.63503142 0.10858188 0.26794407
0.66076466 0.01694360 0.83149958
0.71514305 0.63961663 0.46687463
0.72392695 0.60586196 0.85153772
0.02911739 0.11022682 0.38483437
0.24663585 0.15035780 0.89677816
0.10226623 0.50113658 0.38553788
0.09531369 0.73569625 0.84039526
0.60681034 0.01428507 0.41393517
0.72954356 0.14730546 0.89209042
0.71645641 0.61532879 0.29163380
0.64931839 0.73978008 0.90286001
0.16535784 0.11027163 0.25951375
0.14069206 0.13833549 0.99148237
0.11997683 0.61960539 0.48504935
0.03791013 0.61830532 0.79963992
0.61536816 0.23930789 0.36411363
0.58269608 0.23448130 0.85442948
0.64230163 0.74052910 0.37678576
0.63915168 0.64537032 -0.00222884
0.25457451 0.15059257 0.40074093
0.01985673 0.09105511 0.90010011
0.08305448 0.63637897 0.25883709
0.20111353 0.61629721 0.76879052
0.50886125 0.10787290 0.40263427
0.60004025 0.10778954 0.98439896
0.54297128 0.64021412 0.30268670
0.50160922 0.61307366 0.91121219
0.14965721 0.13774692 0.48895521
0.11893877 0.23734223 0.87168495
0.00216456 0.59660114 0.39294119
0.11199431 0.61707546 0.97542424
0.74193263 0.12603084 0.38237519
0.59640529 0.14555208 0.75600363
0.64931052 0.51085009 0.35716665
0.57744794 0.67283192 0.77555738
0.13794836 0.28474692 0.04763309
0.15571064 0.26344331 0.59359220
0.11893675 0.86230976 0.23471385
0.11358156 -0.01076825 0.60899313
0.50892685 0.35647423 0.14781518
0.73533233 0.40875149 0.65739926
0.65255173 0.85781037 0.00958804
0.66174282 0.84933559 0.51833579
0.10074147 0.29430746 0.20331412
0.01361543 0.33417305 0.64696850
0.24596788 0.84096033 0.09866625
0.16067072 0.90112029 0.72985177
0.60404508 0.25898113 0.15723503
0.50605549 0.40390304 0.60660773
0.64997542 0.90642222 0.23675039
0.73918206 0.89771193 0.66645002
0.00913830 0.39285345 0.09993958
0.09107944 0.40678956 0.51402940
0.02153748 0.89540038 0.10128085
0.24222613 0.84385417 0.59896900
0.74028514 0.35390610 0.10146598
0.64719235 0.35969351 0.52174481
0.64844641 0.76387736 0.11169133
0.60019522 0.84488403 0.74629832
0.13205968 0.45545609 0.20734017
0.12447017 0.35789734 0.73765964
0.15903803 0.98088169 0.14354495
0.12942240 0.86307058 0.50703073
0.66058017 0.40841883 0.22950633
0.61956579 0.38693133 0.74708157
0.74552037 0.89396013 0.13905091
0.66270309 0.75502231 0.61298833
0.23907705 0.39117085 0.12699216
0.14778472 0.48639601 0.65228948
0.14605823 0.85321816 0.00150856
0.00653124 0.89280086 0.59421606
0.64147095 0.32202130 0.01665825
0.59492392 0.26883095 0.65564391
0.51965622 0.85103910 0.14653660
0.51698202 0.83864044 0.64636462
0.11604268 0.45351190 0.03267805
0.24373382 0.37716989 0.62459642
0.11704295 0.75209314 0.11982225
0.09258634 0.76629525 0.65095408
0.60419000 0.46923228 0.06455509
0.60415912 0.49939970 0.61042927
0.59639308 0.98664394 0.09391145
0.60749441 0.97653164 0.60375962
0.37544619 0.00708823 0.12740082
0.37175720 0.20424745 0.53663421
0.41135927 0.52317725 0.07724212
0.39711995 0.52330307 0.58924137
0.79016510 0.20161941 0.10464940
0.76680450 0.07965808 0.66652434
0.90117719 0.73692209 0.13158669
0.98502259 0.63444883 0.64342841
0.39412579 0.23984485 0.14261012
0.39616493 0.03355007 0.52940998
0.48106808 0.65025239 0.15169233
0.37677597 0.70582454 0.53376126
0.97044639 0.05136153 0.11672678
0.85697734 0.15356462 0.51351957
0.97963977 0.57331639 0.09296543
0.75842079 0.59562565 0.66153447
0.34077418 0.10225149 0.23641979
0.26911926 0.13980400 0.60312896
0.34170517 0.67239920 0.02689172
0.49285054 0.62112348 0.61458919
0.79402172 0.04016412 0.13557712
-0.01940765 0.16780331 0.63855710
0.90425326 0.64181688 0.23853983
0.83747186 0.72966351 0.60443516
0.48884878 0.14511234 0.15477074
0.41280287 0.16382882 0.71976386
0.25555566 0.59832262 0.14749252
0.34628586 0.57726240 0.72732485
0.95006348 0.21832064 0.13618681
0.90520273 0.01921323 0.59353346
0.87053154 0.62528491 0.00312075
0.86177534 0.50418823 0.65668782
0.41169726 0.09887494 0.01400592
0.49691910 0.10623171 0.58963807
0.36784716 0.70557155 0.20532682
0.39946391 0.71867070 0.70612590
0.89503794 0.10703020 0.01061579
0.89552595 0.15857741 0.74258544
0.76248742 0.64903709 0.10906588
0.88630601 0.60121860 0.52053377
0.26889982 0.15163282 0.08696859
0.34851584 0.01563615 0.66990302
0.36645771 0.55108307 0.21945969
0.26384386 0.64339481 0.60127438
0.89156757 0.13297969 0.24093521
0.79255104 0.22077325 0.61740119
0.84024696 0.51596946 0.15497349
0.89073140 0.63947618 0.74621068
0.35282830 0.40751778 0.25247092
0.37816979 0.26507017 0.87647332
0.40271216 0.74863275 0.35446230
0.46553197 0.78522605 0.86169994
0.95936652 0.28336337 0.36134295
0.98962323 0.38839673 0.88984627
0.99230257 0.89508521 0.40390385
0.86384158 0.81330036 0.96117526
0.37614785 0.49493188 0.38075707
0.37899924 0.49730281 0.88548771
0.26499011 0.82946589 0.39750126
0.41349827 0.85827574 0.75949999
0.78923687 0.28705861 0.38739226
0.84340513 0.47713715 0.83303458
0.90792787 0.76386376 0.34818282
0.87189393 0.96489873 0.78315408
0.36633173 0.36524583 0.47882981
0.28846304 0.39408999 0.79365420
0.36367638 0.85343168 0.48924003
0.34588262 0.83719649 0.97664034
0.79910316 0.45544503 0.36055747
0.89946198 0.32992033 0.77112655
0.90088590 0.98721043 0.41003364
0.88386479 0.96803282 0.95312861
0.49132245 0.39004529 0.37596962
0.46115645 0.39193332 0.95644169
0.39174214 0.84982776 0.25992443
0.27182505 0.88403354 0.84589866
0.95995389 0.44405001 0.38094835
0.85788306 0.26705723 0.92404478
0.86513350 0.90190283 0.25730259
0.89628778 0.77991752 0.81400636
0.25967677 0.38242398 0.36442787
0.29303028 0.37438572 0.95704305
0.48840732 0.88552967 0.39075612
0.35710951 0.99085850 0.84271153
0.87511433 0.36867131 0.48809669
0.75698342 0.35764678 0.90174758
0.76776865 0.90121653 0.35713277
0.76580110 0.89915811 0.85005091
0.40641389 0.27009569 0.32812821
0.44759268 0.37165148 0.78377878
0.34344146 0.97563912 0.34631427
0.47449113 0.90810018 0.95297866
0.89537944 0.34582128 0.25562245
0.89604612 0.41176881 0.98982692
0.84787351 0.84832951 0.48493436
-0.00474227 0.89369535 0.87491139
0.97996442 0.01909961 -0.00131103
0.98615180 0.97280680 0.50089250
0.99941770 0.47971451 0.01388583
0.01579827 0.49742451 0.46850926
0.50847575 0.01836971 0.99381008
0.51035770 0.02722997 0.49364908
0.50044980 0.50321551 -0.00948295
0.50628007 0.51446368 0.53866168
-0.01341690 0.25852860 0.24430934
0.98385278 0.24704111 0.73047665
0.99576435 0.72089567 0.26671694
-0.00364312 0.71955471 0.75555656
0.49125214 0.25366610 0.21834322
0.51839111 0.24279652 0.74893472
0.47028413 0.74270144 0.24769796
0.25087629 0.02063834 0.26167119
0.25669461 0.97877717 0.76771903
0.26210663 0.49669333 0.24173043
0.23842163 0.50380243 0.74839955
0.75986681 0.96989515 0.23283245
0.75554962 0.98485527 0.75392215
0.73648534 0.49854983 0.26906653
0.76830773 0.49989712 0.73616731
0.23018585 0.22457878 -0.00337176
0.25150955 0.21798169 0.50910720
0.25618077 0.76025182 0.00213746
0.27575231 0.77064027 0.50645629
0.75142259 0.27098164 0.00159874
0.75816746 0.22892300 0.49471301
0.71396339 0.74508081 0.01065233
0.74600228 0.75415759 0.52018239
0.44474135 0.20463782 0.43456110
0.44448521 0.18911751 0.94110054
0.45906278 0.68533938 0.44133577
0.43423663 0.70480299 0.94942664
0.95048102 0.18632549 0.43640723
0.94795452 0.18932946 0.93465767
0.93494641 0.68439233 0.44537065
0.92658196 0.70757418 0.93408603
0.19932947 0.05252411 0.05638664
0.19701588 0.05225519 0.55670685
0.18389165 0.55866320 0.05654581
0.19006498 0.55521549 0.55932718
0.68960093 0.05992921 0.05705606
0.69397658 0.05633743 0.56544954
0.68993024 0.55931347 0.06391804
0.69545411 0.55914832 0.55999633
0.31546715 0.05053410 0.44020479
0.31680779 0.05588083 0.94096232
0.30104609 0.56393953 0.43953778
0.30745970 0.57709396 0.94560986
0.81328991 0.05743363 0.44966262
0.80408603 0.06235403 0.93625950
0.80888231 0.55386050 0.44330955
0.79932716 0.55347979 0.93492926
0.05397115 0.19412135 0.06304813
0.06608381 0.19159899 0.55597675
0.04659354 0.68481223 0.04901616
0.05496001 0.68750440 0.56231761
0.55807175 0.19544389 0.06004491
0.56314768 0.20293875 0.55485346
0.55185304 0.70038697 0.06783028
0.57344402 0.69123913 0.55500034
0.14239798 0.12582840 0.37457553
0.13233354 0.12360778 0.87467318
0.11494503 0.61532340 0.36971986
0.13446964 0.62731478 0.86402867
0.62650201 0.12622369 0.38221958
0.61967658 0.12231781 0.86877864
0.63431808 0.62568430 0.37795231
0.61426147 0.62868076 0.88470154
0.44242512 0.45419347 0.18449065
0.43377697 0.45681006 0.69496458
0.44607593 0.93620568 0.19535505
0.44703140 0.94173834 0.67878973
0.93160542 0.43799725 0.18365598
0.94454244 0.42533076 0.69504464
0.95542390 0.94601071 0.18860711
0.94753008 0.94834367 0.68754257
0.18799354 0.31441943 0.29722460
0.19979697 0.30663680 0.81309538
0.18016597 0.79830475 0.31472077
0.18972342 0.80538605 0.80381943
0.69447515 0.30710247 0.30484865
0.68183060 0.30821068 0.81553797
0.70138754 0.81556571 0.30448098
0.69346230 0.80834441 0.81538320
0.31105012 0.31509823 0.18672206
0.31575840 0.31690015 0.69796146
0.29840551 0.80194282 0.19710324
0.31293299 0.81046043 0.69315625
0.80830961 0.29706625 0.18385589
0.80191122 0.31310027 0.69772614
0.81915990 0.80782455 0.18648087
0.81177570 0.80139926 0.70095714
0.05151109 0.42991217 0.29789853
0.06406521 0.43339779 0.80835930
0.07041058 0.93940709 0.31289181
0.07057984 0.95129331 0.79938424
0.56264279 0.44152848 0.29939469
0.54321207 0.44610410 0.81479778
0.56151473 0.94547800 0.31534603
0.55543298 0.95049418 0.80690503
0.12500837 0.37615761 0.12096365
0.12757418 0.37324496 0.62353788
0.13233843 0.86726470 0.11838542
0.12465939 0.87466155 0.61984278
0.62492514 0.36879394 0.12373060
0.61993175 0.38395179 0.63224422
0.62994777 0.87810182 0.12362151
0.63113763 0.86656939 0.63110112
0.19360151 0.19920124 0.18350732
0.19914736 0.19657758 0.68793029
0.18096335 0.68359741 0.19517879
0.18959410 0.69787974 0.67986113
0.69315541 0.18294345 0.19030951
0.69316606 0.19292271 0.69423716
0.69589209 0.69346260 0.19702825
0.68810333 0.68515037 0.70689058
0.43711346 0.05550511 0.30977684
0.43929854 0.06411299 0.79036189
0.44624648 0.56063509 0.31065552
0.43661947 0.57251176 0.81117139
0.95318274 0.05424287 0.31227015
0.94778623 0.06079227 0.80492592
0.93276132 0.54449148 0.30643671
0.94258634 0.54513435 0.81022667
0.07226512 0.05625109 0.19399803
0.06044470 0.06950533 0.68164056
0.05280172 0.54843066 0.18560756
0.05715624 0.55190972 0.69588654
0.55866264 0.05487182 0.19356699
0.56330386 0.05801241 0.68129327
0.56165420 0.57027842 0.19679328
0.55998811 0.56967533 0.70294141
0.31128943 0.20018993 0.30335592
0.31796730 0.19097886 0.80298247
0.30159137 0.68371412 0.30720980
0.30375796 0.68354025 0.79673422
0.80962932 0.19197809 0.30996064
0.80637352 0.20147122 0.81757084
0.81374158 0.69346701 0.30787701
0.80774616 0.68985647 0.81975930
0.37725392 0.12313443 0.12546825
0.38257155 0.11644890 0.61426849
0.36979606 0.62128229 0.12808243
0.37615539 0.63181568 0.62620757
0.87776423 0.12439740 0.12593319
0.86845770 0.12822970 0.62878254
0.87566529 0.62372151 0.12115896
0.87119889 0.61949945 0.63308484
0.18975880 0.43767030 0.44260906
0.19793905 0.44829249 0.93771265
0.20124465 0.93193078 0.44010736
0.20142887 0.93699368 0.93573540
0.69867392 0.43627678 0.44450175
0.68044781 0.43916331 0.95392207
0.69640664 0.94100761 0.44707311
0.68695106 0.94652364 0.93339417
0.43699656 0.31269668 0.05382081
0.44113045 0.31216818 0.55453602
0.44329336 0.82752137 0.05585825
0.44983902 0.80252396 0.55488471
0.93474119 0.30532184 0.05104771
0.94250509 0.29724869 0.55678858
0.94515142 0.81611274 0.05348756
0.93402725 0.80028395 0.56188208
0.05747083 0.30988034 0.43679400
0.06322287 0.30990938 0.94711645
0.05198698 0.79977915 0.44326394
0.05886637 0.80596994 0.93399917
0.56459582 0.31983166 0.43992597
0.55192095 0.31176769 0.94056361
0.57038536 0.81197884 0.44152302
0.55744649 0.81210206 0.94208620
0.31292118 0.45105843 0.05088730
0.31231676 0.44374173 0.55209235
0.31468634 0.93402219 0.05396192
0.31639404 0.94101181 0.56170834
0.80691998 0.44608251 0.06097175
0.81033752 0.43793107 0.56459003
0.80742422 0.94592048 0.04872309
0.81107445 0.93939721 0.56590806
0.37632363 0.38065417 0.36495117
0.37410167 0.38114924 0.87496161
0.37624531 0.86308594 0.37319688
0.38674095 0.87892201 0.87376240
0.87524069 0.36525815 0.37236225
0.87351743 0.37420481 0.88035126
0.87985071 0.87732430 0.37354078
0.88007051 0.88411287 0.87061238
0.50075406 0.77155850 0.74850817
0.25777258 -0.00480663 0.99652537
0.25616164 0.99356165 0.49908302
0.25077843 0.51138268 0.99725203
0.24835361 0.50063797 0.49645424
0.74486154 0.00369924 0.99389885
0.75409129 -0.00121836 0.50799272
0.74511414 0.50081693 0.00225149
0.75308850 0.49650993 0.50479549
0.25109576 0.25598447 0.24335680
0.25800899 0.25252244 0.74909752
0.23919976 0.74285170 0.25404940
0.24972126 0.75036479 0.74307483
0.74955669 0.24473198 0.24733100
0.74492042 0.25472411 0.75715764
0.75949122 0.75392999 0.24810875
0.75033053 0.74634113 0.75810628
0.01387341 0.99827569 0.25281927
0.00763190 0.00816041 0.74259692
0.99229171 0.49179955 0.24408855
0.00045695 0.48778516 0.75028387
0.49985795 -0.00114820 0.25487770
0.50115492 0.00192659 0.73897949
0.50455293 0.50633241 0.24741970
0.49530425 0.51213481 0.75420758
-0.00011777 0.24890840 -0.00234747
0.00511459 0.24696724 0.49658775
0.99510265 0.75185178 0.99245810
0.99298644 0.74284137 0.50383548
0.49696301 0.25082570 0.00074692
0.50426474 0.25979395 0.49516812
0.49797207 0.75940249 0.00614527
0.51375179 0.74935593 0.49777773
Direct configuration=      3
0.13368990 0.23949929 0.37424901
0.15585443 0.00505310 0.85344674
0.12924654 0.72899571 0.37657903
0.15002264 0.51261639 0.85003976
0.66287126 0.15877213 0.48070574
0.52697070 0.05789804 0.88462202
0.55403740 0.60680784 0.45787221
0.64099192 0.51630623 0.85959655
0.15436026 0.00827578 0.35674049
0.12180187 0.11973358 0.75631675
0.22888858 0.58578717 0.34390270
0.23693149 0.67200195 0.91140479
0.64346780 0.09963277 0.25795186
0.66734944 0.02040073 0.84603653
0.72166440 0.63833730 0.45897555
0.74163694 0.64200521 0.89642009
0.02394200 0.11885636 0.37896273
0.24584345 0.11778650 0.86655558
0.07788569 0.50620820 0.38983152
0.10280133 0.74023289 0.85111075
0.59182622 0.02482549 0.41871276
0.72826264 0.16276194 0.90917977
0.71446009 0.61883282 0.28655956
0.64397669 0.74224354 0.90030498
0.15542552 0.10716348 0.25898656
0.12404532 0.11529752 0.98872681
0.11764793 0.61653481 0.48451197
0.03496397 0.62493505 0.80511924
0.61103497 0.24224123 0.35277607
0.55016831 0.22307767 0.86664479
0.63898501 0.74294619 0.37707173
0.64086200 0.64377766 -0.00230253
0.25290788 0.14688783 0.40164989
0.01233234 0.08815409 0.89772795
0.09980944 0.63685410 0.25211633
0.20600176 0.61798516 0.77884591
0.51374221 0.14481646 0.34785444
0.59546368 0.11442365 0.99045311
0.54317276 0.64484452 0.29783703
0.51298909 0.59456524 0.90915431
0.14862327 0.13695161 0.49008659
0.11308700 0.23096321 0.86580843
0.00330334 0.64759452 0.35095791
0.10676635 0.61618566 -0.02011850
0.73769647 0.09429808 0.35160679
0.61957751 0.13499221 0.76091967
0.64890164 0.51346166 0.35717992
0.59064081 0.66475064 0.77345287
0.13651209 0.28332168 0.05054138
0.12471858 0.25710485 0.61762164
0.15075907 0.89320865 0.24462482
0.09932212 0.98341772 0.59070829
0.50851073 0.38121203 0.12946802
0.72740044 0.38564008 0.70259869
0.63645580 0.86175579 0.01751418
0.66524070 0.84263332 0.52305043
0.10376526 0.29935304 0.21187774
0.00596324 0.35139186 0.64365944
0.24750630 0.85579077 0.11805764
0.15444356 0.90238246 0.72687811
0.61459242 0.28838775 0.20342124
0.52289589 0.39860478 0.59008402
0.64608099 0.92262971 0.23985578
0.73271177 0.90143317 0.67173784
0.00708560 0.38703015 0.10124039
0.08880661 0.40335259 0.51474579
0.01865287 0.88507098 0.11555631
0.24189768 0.84431841 0.59793679
0.73829734 0.37149804 0.12680345