Li192 P32 S160 Cl32
1.0
20.312311 0.000190 -0.000113
0.000190 20.312339 -0.000033
-0.000113 -0.000033 20.312424
Li Cl S P
192 32 160 32
Direct configuration=      1
0.10084535 0.22061097 0.35040701
0.13185834 0.02011139 0.87228232
0.13735379 0.71531504 0.45368212
0.01970511 0.60222336 0.91080677
0.74313407 0.12482230 0.39178984
0.57148497 0.15391070 0.78815648
0.61032649 0.64126800 0.27512511
0.65810428 0.51717983 0.84878544
0.17269079 0.16766491 0.47719172
0.10493552 0.10862847 0.99760922
0.09919143 0.53151959 0.40299378
0.22631465 0.61674168 0.83860692
0.52054556 0.14691090 0.34639241
0.64565531 0.22518982 0.89904353
0.59929848 0.51373845 0.42041439
0.56232088 0.74936375 0.83985559
0.08525818 0.00337790 0.41110490
0.06865625 0.15444379 0.79718242
0.14835949 0.58802875 0.27172054
0.12509191 0.52241945 0.80766684
0.62353517 0.14403079 0.48771159
0.51342456 0.10365793 0.90778310
0.67825872 0.64272000 0.48053126
0.50404780 0.61042591 0.88957350
0.02473399 0.11080253 0.45952405
0.15813589 0.24845214 0.89521701
0.99776585 0.65106243 0.34889659
0.16300591 0.66036622 0.99113427
0.65775884 0.06244110 0.26288554
0.63647569 0.00624483 0.85298096
0.50956978 0.61819852 0.39271496
0.73366069 0.67147737 0.89276499
0.11591869 0.09498042 0.26943991
0.00800892 0.10843822 0.91203527
0.22777473 0.63822481 0.41069065
0.11496417 0.72360742 0.83461112
0.64552672 0.24433563 0.38815778
0.66641536 0.13391507 0.98362722
0.64379185 0.73539813 0.38938525
0.61085199 0.60617767 0.98191185
0.24766554 0.09206406 0.35676487
0.23667955 0.15007557 0.91638528
0.10930515 0.75246661 0.30945449
0.11693809 0.52928488 0.95842806
0.58425438 0.02254031 0.40444808
0.70977644 0.09594901 0.78381145
0.73638802 0.56971648 0.35421259
0.61929676 0.65210974 0.76695077
0.07425081 0.38453296 0.01817779
0.11925456 0.46613311 0.53611579
0.13662016 0.80117205 0.03123061
0.02657602 0.90111948 0.54648164
0.58970755 0.26462028 0.16833520
0.53164707 0.37365794 0.71352079
0.60117267 0.77979761 0.18453160
0.61931873 0.76156549 0.64107292
0.01112321 0.36483451 0.16719228
0.25035083 0.35142238 0.58496383
0.24394199 0.84388981 0.09063770
0.24000732 0.91173583 0.67007898
0.62745699 0.35549841 0.01596845
0.60376246 0.26003462 0.66307060
0.63690232 0.91595071 0.21455347
0.61048687 0.97144197 0.58722489
0.23339651 0.35240689 0.12683811
0.13207791 0.27406929 0.58206713
0.10342322 0.74954100 0.15629134
0.21172221 0.85540336 0.51528221
0.60616033 0.50392333 0.12749908
0.53293036 0.37578620 0.55021770
0.50011879 0.89993260 0.08999279
0.74801374 0.90329874 0.64959024
0.17214583 0.46727352 0.15282027
0.01462705 0.40099776 0.60081106
0.01514128 0.85066067 0.15898006
0.09193001 0.85876267 0.71945164
0.49162454 0.37412107 0.12127251
0.58514061 0.48897206 0.62163351
0.62108186 0.77371644 0.02845369
0.52025207 0.84975158 0.64813401
0.12543653 0.34732172 0.26241575
0.16788148 0.46635719 0.67719167
0.08935690 0.95477211 0.05784177
0.12407700 0.99714550 0.65301276
0.74837995 0.41211755 0.12976079
0.69439210 0.32933206 0.55135751
0.60542513 0.94111089 0.02023554
0.67267933 0.83631680 0.52497503
0.13343458 0.24826514 0.11419912
0.10347852 0.33315843 0.73485144
0.15803838 0.93144524 0.24333140
0.15508151 0.76373730 0.61765702
0.65494309 0.38992193 0.24382990
0.67835505 0.38860991 0.71407492
0.72211837 0.85613933 0.07842126
0.64800834 0.89638745 0.73163040
0.49815117 0.13158228 0.12172733
0.35951358 0.15564888 0.51720559
0.40920617 0.53083639 0.11814121
0.38608389 0.62446944 0.74195999
0.89555711 0.24312495 0.13440566
0.86283600 0.12407918 0.50797282
0.88851123 0.49964461 0.10032222
0.86401681 0.52471528 0.61027854
0.36213537 0.05579045 0.21088202
0.35576740 0.12812282 0.74369856
0.29113826 0.70204865 0.12738771
0.40885906 0.74172119 0.65389104
0.80642440 0.02020022 0.14114306
0.96408444 0.06146038 0.59920025
0.85626656 0.56760408 0.23825716
0.93978549 0.75027757 0.63419326
0.39365939 0.20872470 0.21041316
0.44240947 0.21772753 0.65099469
0.44112213 0.73132139 0.14387124
0.34682758 0.63818432 0.51622964
0.95701237 0.05470186 0.09331446
0.88972816 0.13586242 0.73203494
0.89103881 0.73852261 0.10200939
0.83124340 0.62946400 0.73242350
0.25548447 0.06441943 0.15181264
0.34388585 0.00782775 0.64792477
0.27608111 0.58958812 0.20577772
0.37803390 0.50333800 0.61099064
0.76671358 0.17571328 0.11486291
0.77158162 0.06037732 0.63277502
0.76647255 0.65284344 0.09499130
0.00115051 0.58592986 0.58972909
0.34679116 0.18858923 0.04516645
0.26676827 0.13738863 0.65250116
0.38843721 0.62302750 0.00300081
0.48602744 0.61457425 0.59984786
0.88132598 0.12910562 0.25182946
0.79276705 0.22003522 0.60214460
0.87750185 0.60217327 0.00833781
0.99253955 0.64698695 0.70655178
0.38894428 0.03834161 0.04952995
0.49184720 0.06760191 0.60354308
0.40423660 0.64620073 0.25063507
0.26553681 0.63967163 0.62423143
0.83092751 0.14370899 0.00611870
0.93869847 0.23525863 0.62235918
0.00177900 0.64463167 0.15325182
0.86280211 0.64217219 0.53426899
0.48051563 0.35101910 0.34904451
0.26975790 0.42506235 0.85146131
0.34291345 0.77191318 0.42679963
0.25517063 0.85990135 0.86124654
0.77141467 0.43827975 0.36830607
0.98859666 0.34358715 0.85087955
0.85357936 0.89619647 0.25048750
0.00113922 0.89705791 0.89062091
0.25615311 0.38180737 0.35546359
0.38204307 0.35569798 0.76219445
0.46149707 0.94592874 0.36429349
0.33963039 0.99559868 0.84872065
0.90659162 0.49544533 0.40883847
0.76343355 0.40281224 0.85911964
0.88617663 0.98625997 0.36811333
0.92374850 0.78280224 0.82769990
0.37958307 0.25065987 0.36161980
0.34166376 0.26341528 0.89415229
0.43547626 0.91047055 0.48639695
0.39231838 0.79956536 0.80816648
0.98666352 0.36702462 0.34923389
0.88524339 0.34447723 0.75832041
0.85114096 0.88932558 0.47526866
0.84644378 0.80167412 0.95293087
0.38755871 0.45969521 0.42339426
0.36328050 0.37825241 0.99886753
0.28426820 0.93214860 0.39741625
0.34816675 0.79381811 0.95274234
0.86632332 0.37945977 0.48764915
0.89363076 0.37852572 0.98154247
0.74974776 0.89352147 0.33817604
0.76624578 0.90815696 0.85638610
0.35027042 0.32411672 0.46501214
0.39904516 0.48932967 0.91227730
0.46320311 0.80210292 0.35404694
0.47288845 0.92731190 0.88598662
0.85544316 0.39078666 0.27444119
0.84457141 0.26668945 0.86940624
0.96738023 0.82832624 0.34582597
0.88071599 0.95985294 0.96547576
0.32506351 0.41434991 0.24071233
0.49789853 0.35449837 0.87276584
0.37577855 0.87196982 0.26368063
0.39406347 0.91496348 0.97856087
0.88403104 0.27614099 0.37323963
0.86885007 0.49138635 0.85602227
0.83964236 0.75597010 0.38114899
0.87818829 0.91028404 0.76543926
0.99511765 0.01662320 0.99682921
0.98034593 0.99009257 0.49334592
0.99377764 0.52060848 0.99027695
0.00703236 0.49733233 0.50611995
0.49579536 0.98841458 0.98991135
0.50389771 0.99799882 0.48993069
0.46094139 0.52713001 0.00998821
0.50334243 0.49107847 0.50564794
0.01451407 0.27958102 0.24810340
0.98415404 0.24946676 0.73675486
0.01499340 0.74197227 0.22906073
0.99916242 0.76444396 0.74804531
0.49896631 0.24244488 0.27469947
0.49819763 0.26084048 0.75126020
0.49168427 0.73174906 0.24243869
0.50166007 0.74496410 0.72200132
0.24287190 0.00074730 0.24674611
0.27457833 0.02715971 0.73990846
0.23706831 0.49261813 0.25949873
0.23147703 0.50946026 0.76025878
0.74302260 0.97873633 0.24761979
0.74690567 0.00303834 0.74987290
0.76097192 0.48496927 0.25337064
0.73560545 0.46957942 0.77125538
0.26168534 0.25074785 0.97146141
0.27945497 0.24484726 0.49751558
0.24771318 0.75446023 0.01194557
0.24038172 0.73754403 0.50215485
0.73835771 0.22523360 0.00009423
0.73431998 0.23486801 0.48913232
0.75700239 0.74787507 0.01113191
0.74760299 0.73902022 0.45945178
0.43704257 0.18399685 0.43910669
0.44504058 0.19411046 0.93943585
0.43894345 0.70843828 0.45480984
0.43287933 0.71056315 0.91256063
0.93882956 0.19501617 0.43899456
0.93826017 0.20969187 0.93909615
0.92814138 0.68648428 0.43988495
0.93735396 0.69695498 0.94647651
0.17949293 0.04699627 0.05942827
0.19482164 0.06536402 0.57737022
0.19810602 0.56501546 0.05820842
0.20306749 0.55139068 0.55665967
0.69658172 0.05546298 0.06065379
0.68973951 0.06332235 0.55392664
0.68863866 0.56491497 0.05299235
0.68360919 0.55588014 0.55900143
0.29808467 0.05118790 0.44992764
0.30395326 0.06766869 0.95763523
0.31699517 0.56480187 0.43771144
0.30510811 0.55022076 0.94561056
0.80559029 0.04648812 0.43947982
0.80384722 0.04433596 0.93037275
0.80316241 0.55250466 0.45176714
0.79069600 0.55931937 0.92227986
0.04575986 0.18642703 0.06254764
0.06350801 0.19490405 0.54632819
0.07211905 0.70242463 0.05118418
0.05113469 0.70365873 0.54903575
0.56991572 0.18496798 0.05821463
0.55192277 0.18306328 0.56415079
0.55182131 0.69504225 0.04007952
0.57509352 0.70198665 0.55282960
0.11689149 0.11425696 0.38341447
0.12519737 0.12926046 0.89182763
0.11744843 0.63571062 0.36951209
0.12361830 0.62118568 0.87946057
0.63707093 0.12323645 0.37300254
0.62486944 0.11433485 0.88398985
0.63198154 0.61580014 0.38289245
0.61421544 0.63429669 0.87836763
0.43327893 0.45452157 0.20249478
0.43991130 0.44697816 0.69112852
0.44519393 0.94069516 0.19016052
0.44871807 0.94353415 0.67234797
0.94920477 0.44911587 0.19932731
0.93268988 0.43851192 0.68558765
0.93458539 0.94642914 0.18201626
0.95573535 0.95214308 0.69647581
0.20587873 0.27994617 0.32388086
0.19820735 0.33549582 0.80717545
0.19928164 0.82927442 0.31384042
0.18139668 0.81753789 0.79085949
0.71615037 0.32003895 0.31808979
0.69206869 0.29618858 0.80250822
0.68912794 0.80593442 0.28827012
0.68777899 0.80971632 0.81751567
0.31128472 0.30220833 0.20152904
0.29793520 0.31685919 0.67690875
0.31736148 0.79898391 0.19402205
0.31135047 0.80047626 0.69204326
0.81426349 0.30403058 0.18998970
0.79434590 0.30109966 0.68430600
0.80812381 0.78694545 0.18133949
0.81088268 0.82538250 0.71179604
0.06759987 0.44486576 0.31477291
0.05092390 0.42403516 0.79773035
0.04738494 0.93278595 0.30681106
0.07076338 0.95706711 0.81301688
0.56033180 0.43656101 0.31045896
0.56175641 0.44264228 0.80424686
0.56582934 0.94566690 0.30792025
0.55505810 0.92576755 0.79442601
0.12778335 0.36485492 0.13851912
0.14208175 0.38311569 0.61476905
0.12454699 0.86845386 0.12569476
0.13589164 0.88421772 0.60634956
0.62905561 0.38705400 0.13450708
0.61221784 0.37729665 0.62816058
0.61319820 0.87079773 0.10220157
0.63463762 0.87966789 0.62440293
0.20415353 0.17233472 0.19395334
0.17331358 0.21776770 0.68994261
0.19811658 0.69030299 0.21042310
0.18723336 0.68484349 0.70744649
0.68873874 0.20231516 0.19670019
0.69365691 0.17419042 0.68826078
0.67898851 0.69342416 0.17499231
0.70862930 0.69260110 0.70635486
0.45929418 0.06097519 0.29504579
0.45018462 0.04330174 0.81340157
0.44380037 0.55609034 0.32678358
0.42963055 0.54788652 0.81545163
0.95633434 0.06052968 0.30967531
0.94862155 0.06645249 0.81883547
0.94514211 0.55696619 0.31488901
0.94507805 0.56470733 0.79593685
0.06558111 0.03254010 0.17537419
0.05672534 0.07909745 0.69758383
0.06673106 0.56403730 0.19894796
0.07185039 0.54858217 0.68806785
0.57108813 0.05190862 0.18147166
0.56826615 0.06394159 0.70342265
0.55524053 0.55951701 0.21104059
0.54212553 0.57889956 0.69997350
0.31741637 0.16536575 0.29798336
0.29757496 0.20970200 0.80150006
0.30174337 0.71277698 0.33439836
0.31016165 0.70611831 0.82046483
0.81146593 0.18648198 0.31187798
0.81564170 0.18381537 0.80042552
0.78915437 0.67391339 0.30808249
0.82409662 0.71345746 0.82687069
0.38720344 0.12146647 0.12452517
0.38850346 0.11307792 0.63221899
0.36891542 0.62571062 0.14032111
0.38575317 0.62281681 0.62704056
0.86747926 0.12432894 0.12966312
0.85855197 0.13371187 0.61917942
0.88550022 0.61645323 0.12712203
0.89875058 0.62806319 0.63715426
0.19356597 0.46667046 0.42082307
0.18036107 0.43683459 0.95393539
0.18259021 0.94049242 0.45098817
0.19340732 0.93379074 0.94785854
0.68540935 0.42284305 0.45765927
0.68093122 0.43739404 0.93403942
0.69436632 0.92664862 0.44904505
0.68975665 0.93174090 0.94795785
0.44095919 0.29877672 0.05931429
0.43405214 0.29445352 0.56588933
0.43578609 0.80765744 0.03980108
0.44447200 0.81802599 0.57261837
0.95427595 0.31282068 0.05735026
0.95152394 0.31540176 0.53916124
0.95643712 0.82365369 0.04493394
0.93458034 0.82279278 0.53959241
0.07327418 0.31474062 0.42532350
0.07192374 0.30803279 0.93854055
0.04705611 0.80490684 0.43178644
0.06861503 0.80134509 0.92385572
0.55078027 0.28951852 0.44193865
0.56883800 0.29234049 0.94150856
0.54288380 0.83266369 0.45037057
0.55630622 0.81905747 0.93549528
0.29936138 0.44530371 0.08103123
0.32378970 0.43235780 0.53327480
0.31343551 0.94945703 0.06100646
0.29181035 0.93224037 0.56400305
0.80290079 0.44571651 0.04081479
0.79881416 0.43740551 0.57638934
0.80791101 0.93674449 0.05877778
0.80688821 0.95191718 0.56964113
0.36903294 0.37283950 0.36066203
0.37470438 0.37304617 0.88043839
0.38532910 0.87494687 0.38741733
0.36231045 0.88782887 0.87737584
0.87824926 0.38892892 0.38031250
0.87719866 0.37394262 0.86614820
0.85949863 0.87635831 0.36254255
0.88553599 0.87935411 0.87797895
0.24852013 0.00102821 0.00266673
0.23877846 0.00047038 0.51295358
0.24430453 0.49483226 0.00975202
0.26001835 0.50179792 0.48686589
0.75091811 0.99669395 0.00063766
0.74561337 0.99565739 0.50246342
0.73883816 0.50274994 0.98731226
0.73692057 0.48774140 0.51114971
0.25616925 0.23408441 0.25397979
0.24311215 0.27208096 0.74679777
0.24989123 0.76272345 0.26125908
0.25014958 0.74973396 0.75289583
0.75596409 0.25059288 0.25084609
0.74828792 0.23226964 0.74489445
0.74039907 0.73855290 0.23933385
0.75641090 0.76438814 0.76486241
0.99841003 0.99858140 0.24252357
0.00814194 0.01256666 0.75469402
0.01050696 0.50568193 0.25656557
0.99667015 0.49289314 0.74280262
0.51305723 0.00127501 0.24201702
0.50195831 0.99367356 0.73958017
0.49870201 0.50037579 0.26526989
0.49849726 0.50407016 0.75391349
0.00479546 0.25274811 0.99190034
0.01259297 0.25925813 0.48305138
0.00645743 0.75366545 0.99030559
0.98693144 0.75175288 0.49149265
0.50569223 0.24686505 0.00405180
0.49109246 0.23954877 0.50525640
0.49633614 0.75186965 0.97877487
0.50529993 0.76000575 0.50951206
Direct configuration=      2
0.10880767 0.22714751 0.33801736
0.13773111 0.02388534 0.84057918
0.13667049 0.70896174 0.47808500
0.00749221 0.57705848 0.91192019
0.74814102 0.12271639 0.37839997
0.58166057 0.14240028 0.76373638
0.57523048 0.63383812 0.28315276
0.65607842 0.51849140 0.84685853
0.18232941 0.14091879 0.47498982
0.13440054 0.11482994 0.00095305
0.10924506 0.54435120 0.40015692
0.21629318 0.60165568 0.84945811
0.51823155 0.13870175 0.32864012
0.63152991 0.22507078 0.88845454
0.58649339 0.51339680 0.41168804
0.59744858 0.75041136 0.84117983
0.09666779 0.00665107 0.39584977
0.07933616 0.16253577 0.78320442
0.14372332 0.59923050 0.27176843
0.11593875 0.53699291 0.80086734
0.61818189 0.12746209 0.48369692
0.51023627 0.08460827 0.90123147
0.67828910 0.63866985 0.48306977
0.49764178 0.63841415 0.84945081
0.01393575 0.12618592 0.42039369
0.14071181 0.25340273 0.88909278
0.00560191 0.68345385 0.33718150
0.16310253 0.66588170 0.99437743
0.66671399 0.08428427 0.25568976
0.62272426 0.00216815 0.87616624
0.52431305 0.63111245 0.47073899
0.73775302 0.66344184 0.91250917
0.12642942 0.11009089 0.25389982
0.01130968 0.07593988 0.90971920
0.24080092 0.66599426 0.40929515
0.09331190 0.72091821 0.84238473
0.64318354 0.23546426 0.37407455
0.63066682 0.10548963 0.99295351
0.63497645 0.73718006 0.39043471
0.57309895 0.60353671 0.98359600
0.26144051 0.07824797 0.34424950
0.23189918 0.14185831 0.88447553
0.12113927 0.75844231 0.31199303
0.12417672 0.53291335 0.94947999
0.60126297 0.01802147 0.39258761
0.72911288 0.07020490 0.82036957
0.73046504 0.60224615 0.33487073
0.64003204 0.61536644 0.75647141
0.08793568 0.41420326 0.01803951
0.11148096 0.46035706 0.51826090
0.15989442 0.83406331 0.01459650
0.04909601 0.86434891 0.54606800
0.62144311 0.25351811 0.13053571
0.54590069 0.36535414 0.72099202
0.59762473 0.78198943 0.20100349
0.59248874 0.75894140 0.67002821
0.02011975 0.35599754 0.16873039
0.23721895 0.36732118 0.58583815
0.24368521 0.86401888 0.12583124
0.22549219 0.89392139 0.69485387
0.64778325 0.35900380 0.00767620
0.62284955 0.24193482 0.63063884
0.63535712 0.93998685 0.20248088
0.59223958 0.96877257 0.59298810
0.25274948 0.34478665 0.10643762
0.11126326 0.28481790 0.60651574
0.11328040 0.74661119 0.14508889
0.22049963 0.87528545 0.56333858
0.64730847 0.49823009 0.12542728
0.52656287 0.37285873 0.56376168
0.50929118 0.88165082 0.11595403
0.73388188 0.87987423 0.63751666
0.14330962 0.46428882 0.17340519
0.01811279 0.42567260 0.59404532
0.02131227 0.85386208 0.16061037
0.07489153 0.82623396 0.73273213
0.52078107 0.37744774 0.15176526
0.62041402 0.46564654 0.59909432
0.64021351 0.76404535 0.02057939
0.50386147 0.85963489 0.68585983
0.12543816 0.36243150 0.24137040
0.17795446 0.47028376 0.67387402
0.09434360 0.97227986 0.08153339
0.11845662 0.98551072 0.63547145
0.75258205 0.36018096 0.11615973
0.66271715 0.32367384 0.51429050
0.61624047 0.92069435 0.03209514
0.62549127 0.84576206 0.52234107
0.12406507 0.25504427 0.10189981
0.08624361 0.35148024 0.73358908
0.17782902 0.92374007 0.23121966
0.12491234 0.76172568 0.61126808
0.67283631 0.41006694 0.25488365
0.70257881 0.38418598 0.69445662
0.74014830 0.84144357 0.08924854
0.63785359 0.90442783 0.73462322
0.48625357 0.09978898 0.13464800
0.34486145 0.19188422 0.52272585
0.41763921 0.50951671 0.10669798
0.33959976 0.61785675 0.74606195
0.91071670 0.22589861 0.12085582
0.89813090 0.12779866 0.51580931
0.92702568 0.52324183 0.08656018
0.82381308 0.52578497 0.65443146
0.35871193 0.02215598 0.19481788
0.36674973 0.12747395 0.74284773
0.28831165 0.71445247 0.11986509
0.40273924 0.73812533 0.64084405
0.79637434 0.02453439 0.14213669
0.97165524 0.05029166 0.60406040
0.87443622 0.60860191 0.21555973
0.90043976 0.75212836 0.65927933
0.39341796 0.19279900 0.21880107
0.44078813 0.22610832 0.65124579
0.44111144 0.73272133 0.13868036
0.35014804 0.65886704 0.52106100
0.95442510 0.04946682 0.10323688
0.90119825 0.15812342 0.74027515
0.88191720 0.73648316 0.09783318
0.83816359 0.62459202 0.75055144
0.25795328 0.11166693 0.17006463
0.34396039 0.03761572 0.65333843
0.30209732 0.55441996 0.18977100
0.40339573 0.50544883 0.59883720
0.75281769 0.14122334 0.10603397
0.79211589 0.06251129 0.63615538
0.76335138 0.65106797 0.09095407
0.98115985 0.57067232 0.59247427
0.34040432 0.19753313 0.06119260
0.25541918 0.16452588 0.61512316
0.37883625 0.61794648 0.01488786
0.48761459 0.62892229 0.65119735
0.89221777 0.11612879 0.22542101
0.76879388 0.20016558 0.60958740
0.87395191 0.62425771 0.99774960
0.98036862 0.63496283 0.72597349
0.39753544 0.06610355 0.01400389
0.46523972 0.09503240 0.58597949
0.40393916 0.65513676 0.24684269
0.25424195 0.65303019 0.61925086
0.86303540 0.14786929 0.00945612
0.97253513 0.21477998 0.62503078
0.99387901 0.64225877 0.14220192
0.85735320 0.63281678 0.53352375
0.47296133 0.34530475 0.32559506
0.26172399 0.42214897 0.84819217
0.33530368 0.78102536 0.41018874
0.25250841 0.87460439 0.87529286
0.77125898 0.40933850 0.37417311
0.97520875 0.31668043 0.86080663
0.84238770 0.88121252 0.25464916
0.99152031 0.90612563 0.88738276
0.25256243 0.37122986 0.38797352
0.39255255 0.36188220 0.76775185
0.46095543 0.95947630 0.38736257
0.35082519 0.98002226 0.84110870
0.92323139 0.49085951 0.39243105
0.74965149 0.41410155 0.84386187
0.89407131 0.96654784 0.42337926
0.90652477 0.77907682 0.85933196
0.39940830 0.23314546 0.36213160
0.31865204 0.26930832 0.88323344
0.39017472 0.92542803 0.48476571
0.37573521 0.81777921 0.77164585
0.99399584 0.35111845 0.35469417
0.88055970 0.36268340 0.74352735
0.84418368 0.83358482 0.49651140
0.84119118 0.83565812 0.98618251
0.38971063 0.45923485 0.42022245
0.35736258 0.35208639 0.98539779
0.27248350 0.91739756 0.35945476
0.34482206 0.77223342 0.92585115
0.88864987 0.38786442 0.49867515
0.88507691 0.39378469 0.97074381
0.74957339 0.89928576 0.36032533
0.76370899 0.91091624 0.84495309
0.34394381 0.31385659 0.48204195
0.40877246 0.48934779 0.91623324
0.46466727 0.81697960 0.35386380
0.48786320 0.87400145 0.87823761
0.85456946 0.38885511 0.26415799
0.80019266 0.27377461 0.89186214
0.98545770 0.84754760 0.35664081
0.89527485 0.95782083 0.97726586
0.34384839 0.38978824 0.25945489
0.48611473 0.35225219 0.86992380
0.39997702 0.87021923 0.26312999
0.39754238 0.92146021 0.97763629
0.85316468 0.26683394 0.38092873
0.86106676 0.47662620 0.85634801
0.82402245 0.75956714 0.37617345
0.87657162 0.91266197 0.77007884
0.00101531 0.99484328 0.00815438
0.00448088 0.00305866 0.48990037
0.00454884 0.50742947 0.01168738
0.99047427 0.49190978 0.50234366
0.49898157 0.97762070 0.99343873
0.50969468 0.01212550 0.49702908
0.47545278 0.52846089 0.00457173
0.51171593 0.48492190 0.53708691
0.01931859 0.28724007 0.25622692
0.00564217 0.27481079 0.73272499
0.03239169 0.73837331 0.23927975
0.99927199 0.74900217 0.75984367
0.48630725 0.24414181 0.26769715
0.51506200 0.25306840 0.74089077
0.48104290 0.75734400 0.25204424
0.50132312 0.74276421 0.73567234
0.25632476 0.00593253 0.25085698
0.28458741 0.98131045 0.73533224
0.23479344 0.48235627 0.23840820
0.23113871 0.51501764 0.77777772
0.74682156 0.97204557 0.25456571
0.73375318 0.98184707 0.74878955
0.76470825 0.48286163 0.27643927
0.72919366 0.49922529 0.75569313
0.25536056 0.24793119 0.98700811
0.23986728 0.25237374 0.51517374
0.24780708 0.76626979 0.01830306
0.24060240 0.73182979 0.51809653
0.76684375 0.21919611 0.97538513
0.72443289 0.22853137 0.48695547
0.75552789 0.73723837 0.00621940
0.72634729 0.77590786 0.45701777
0.45589384 0.17460791 0.44120476
0.44894720 0.17519457 0.95795564
0.42395738 0.71205964 0.43159689
0.43855890 0.71150635 0.92715598
0.92842509 0.20570901 0.43645915
0.94689165 0.21206296 0.93189053
0.92642540 0.68890345 0.44000544
0.93658209 0.69888256 0.93883359
0.20331999 0.05164578 0.07123845
0.19080927 0.07485060 0.57909980
0.17737457 0.54786472 0.05192151
0.20076001 0.55476322 0.57409367
0.69647604 0.03512269 0.06491817
0.70157127 0.06358171 0.56301471
0.69478424 0.57997405 0.03941983
0.69857771 0.56327915 0.57086220
0.30479440 0.08107220 0.44980452
0.30384853 0.05572212 0.92726897
0.30947161 0.57664686 0.44506010
0.29953707 0.55239762 0.93518483
0.81951514 0.04755974 0.44343470
0.82512677 0.04370890 0.95196039
0.80986794 0.56224330 0.44945590
0.80548877 0.55884283 0.91798100
0.03466233 0.19404484 0.06340024
0.06169930 0.18661950 0.53403864
0.06774861 0.69754210 0.05379514
0.05510907 0.68822437 0.56018908
0.56421642 0.17886749 0.06381964
0.55147654 0.17576772 0.55777311
0.53567822 0.70064552 0.06007937
0.55228450 0.69325361 0.55712629
0.13279208 0.11401134 0.37290042
0.11007456 0.14046613 0.88701976
0.13232722 0.64862120 0.37396012
0.11362716 0.61788306 0.87843913
0.62994123 0.12000534 0.37263746
0.61684042 0.10614924 0.86939987
0.62099612 0.62454375 0.38644952
0.61576436 0.63214548 0.87179403
0.43606317 0.44876241 0.20199319
0.43984504 0.43724839 0.69068000
0.44579918 0.94810028 0.19166595
0.43713509 0.96321107 0.67279178
0.94725946 0.44576395 0.19253047
0.93944639 0.45259277 0.68295035
0.92663952 0.93782805 0.19297736
0.94703188 0.95169240 0.68962454
0.20037633 0.30810138 0.30317053
0.18561531 0.32025960 0.80255541
0.21149769 0.82790181 0.30796925
0.18945913 0.82237953 0.79458972
0.71235618 0.30527842 0.30136643
0.69511974 0.30311567 0.81229083
0.67895492 0.80490812 0.28662583
0.68650862 0.82224986 0.80088612
0.32675633 0.28643879 0.19182033
0.30262184 0.32857441 0.68734559
0.32721616 0.81278498 0.19369628
0.30622399 0.79486323 0.67770757
0.83128333 0.29732130 0.18251570
0.78443501 0.30285720 0.67814567
0.79832844 0.79035600 0.17893905
0.81709556 0.81706059 0.69881423
0.05760836 0.44801288 0.30886596
0.04653833 0.43520682 0.81574092
0.06213080 0.92320152 0.29452176
0.06632028 0.94874477 0.80282786
0.55231180 0.43375790 0.31232068
0.55112241 0.43848801 0.81580061
0.57145533 0.92751121 0.31318335
0.54192684 0.93084820 0.79591207
0.13389295 0.36882755 0.12721008
0.12833413 0.38878731 0.61639130
0.13421221 0.85728141 0.12533227
0.13410654 0.86673752 0.63666868
0.63421686 0.37318358 0.12859175
0.61458195 0.35229884 0.62296021
0.62431282 0.85012175 0.11800778
0.61601784 0.86338813 0.62892672
0.18693125 0.18979866 0.20311935
0.18342264 0.21352776 0.68470460
0.20148050 0.69209934 0.20605100
0.17490926 0.68995697 0.69575121
0.69057292 0.18083759 0.19342271
0.68412727 0.17955992 0.71009389
0.67615576 0.66813346 0.19101627
0.70671615 0.70341647 0.68754452
0.45270940 0.04738250 0.31063528
0.44247468 0.06009692 0.81651152
0.45129812 0.55870135 0.32257675
0.43290153 0.55339254 0.80630637
0.95299299 0.05396500 0.31987227
0.94728064 0.05448573 0.81466353
0.94581367 0.57322917 0.30578231
0.93454262 0.54941140 0.81043451
0.04889645 0.04569334 0.18502755
0.05845157 0.07685330 0.68945188
0.05760569 0.55559155 0.18435135
0.06110599 0.55818710 0.69998057
0.57461109 0.04086219 0.18958061
0.55626384 0.05935853 0.68642660
0.55391767 0.55829029 0.19229105
0.55633633 0.54553618 0.69364666
0.31248080 0.17768176 0.30295003
0.29618977 0.20249235 0.79345295
0.32197190 0.71143426 0.31315458
0.29108072 0.69908107 0.81037703
0.82757584 0.18668453 0.29101678
0.81539022 0.19664104 0.81253399
0.80236743 0.68466897 0.28990673
0.80547713 0.70209640 0.82166815
0.37132045 0.11306662 0.12803630
0.36827467 0.14881665 0.62309753
0.36546792 0.62232662 0.13473111
0.37387110 0.61712012 0.63085664
0.86762527 0.12284395 0.11147324
0.88404667 0.14743732 0.62893089
0.87106527 0.62968977 0.10678726
0.89193563 0.62419881 0.63984198
0.18489035 0.46098966 0.43608103
0.18099549 0.43376758 0.95100974
0.18974753 0.95518831 0.46320707
0.17883406 0.95158964 0.94864547
0.68541971 0.45264505 0.44845385
0.67822075 0.45870524 0.93647858
0.69055816 0.94079469 0.45719289
0.69843717 0.93265928 0.94013311
0.44957236 0.30374205 0.06556512
0.43666509 0.29207740 0.55418850
0.42922698 0.82407338 0.04440692
0.44048491 0.82400801 0.55807845
0.94995985 0.32858437 0.05382446
0.96053442 0.32269493 0.55599310
0.95535863 0.82021237 0.05277768
0.94018133 0.80495294 0.56798808
0.06720589 0.29609757 0.41712024
0.06908614 0.32280918 0.94993587
0.04825990 0.80533597 0.44323092
0.05723155 0.80261872 0.93214860
0.56486760 0.30047580 0.44814855
0.56259284 0.30240829 0.94995242
0.55151210 0.80593387 0.43564662
0.56586779 0.81390801 0.94634516
0.31193165 0.44369109 0.05811211
0.32237854 0.44482784 0.53525607
0.32130675 0.94695469 0.05324571
0.31193319 0.95936809 0.56214938
0.80459854 0.45124001 0.04368354
0.79546617 0.44186472 0.57446860
0.81698267 0.92310355 0.05935953
0.82139902 0.94797723 0.56686202
0.38202200 0.36181329 0.37705316
0.38242747 0.37249662 0.88284375
0.37772238 0.88349517 0.38219394
0.37416713 0.87431927 0.87220044
0.88824353 0.38326213 0.37317580
0.86239305 0.36839356 0.85061431
0.85909250 0.87329165 0.37014969
0.88375024 0.88021604 0.88283302
0.24943542 0.99795122 0.99846645
0.25036066 0.02115871 0.51248996
0.24579275 0.49428866 0.99729173
0.25291245 0.50755023 0.49840536
0.75954110 0.98768448 0.99680282
0.75319121 0.99917090 0.50778701
0.74538420 0.51216864 0.98762873
0.75331476 0.50370024 0.51064670
0.25860783 0.24221708 0.24905182
0.24326697 0.26871637 0.73515380
0.26485986 0.76172107 0.25335598
0.23700035 0.75201633 0.74049554
0.76284872 0.24333897 0.24190835
0.74971548 0.24633168 0.75497528
0.73517593 0.73473157 0.23425939
0.75488130 0.76005400 0.75392967
0.99506348 0.98756187 0.25192666
0.00330293 0.01024956 0.74700776
0.99969908 0.50704797 0.24859153
0.99840292 0.49441329 0.74998444
0.51180573 0.98951934 0.25348281
0.49489123 0.00775511 0.74304313
0.50361368 0.50339815 0.25936840
0.49520969 0.49476365 0.75366360
0.00576413 0.26450863 0.99951785
0.00556374 0.25675271 0.48157602
0.00343136 0.75214524 0.99548829
0.98731656 0.74755431 0.50165998
0.50456551 0.23699784 0.00725341
0.50583593 0.23852077 0.49829405
0.49175152 0.76300117 0.99567178
0.48815874 0.76299141 0.50042736
Direct configuration=      3
0.10609397 0.23770618 0.32330809
0.15983000 0.00945424 0.84722620
0.13580141 0.69153072 0.46265860
0.00212517 0.61325447 0.89805786
0.74863234 0.13954362 0.40038136
0.58781224 0.13785162 0.76972698
0.57163867 0.63238199 0.28135919
0.60925642 0.51043079 0.87241568
0.14817583 0.16077514 0.45976178
0.12761523 0.14744864 0.98434451
0.11088596 0.52854818 0.39376047
0.23677599 0.59673116 0.85171987
0.53578952 0.14990322 0.34227523
0.65104275 0.21244647 0.93888873
0.60809217 0.51337535 0.39687497
0.63280127 0.73701186 0.88653121
0.11158508 0.01859209 0.40078979
0.07488271 0.15084130 0.77937372
0.15876536 0.59609536 0.25202483
0.11177275 0.55215943 0.79716085
0.65570679 0.13078176 0.49684073
0.49904596 0.10585874 0.88729800
0.67773892 0.66455863 0.49799703
0.50118078 0.67193913 0.83886223
0.01244250 0.10013803 0.40926093
0.13724446 0.24301094 0.89312557
0.00350021 0.63389466 0.37546550
0.15813581 0.66278675 0.00093215
0.68599762 0.08440432 0.25763062
0.63555050 0.99810148 0.86902403
0.52996972 0.61083079 0.45113453
0.72399673 0.64346385 0.90046412
0.14074023 0.10085873 0.25674469
0.02266922 0.12605423 0.89533486
0.24164963 0.62566864 0.36941728
0.08468850 0.72955847 0.83867906
0.64605252 0.23966478 0.39920530
0.60631081 0.09511775 0.99885579
0.64278825 0.73899609 0.39614769
0.57391073 0.61448470 0.98011259
0.23980236 0.09275805 0.33973868
0.25137630 0.14515307 0.89355622
0.12538357 0.71852819 0.27447614
0.10897957 0.52861865 0.95352377
0.59031351 0.02187079 0.39453399
0.74363103 0.11043635 0.84656873
0.73291025 0.58941117 0.36067766
0.67645319 0.60702549 0.76793869
0.09062847 0.39689624 0.02071361
0.11171057 0.46855454 0.53269241
0.12611522 0.87084532 0.01275051
0.00907242 0.90854351 0.55121467
0.65785767 0.26245427 0.10820290
0.59391214 0.35750989 0.74303480
0.60101662 0.77970626 0.18357243
0.60989176 0.75392684 0.62548374
0.00554627 0.35489904 0.14254258
0.23434418 0.36318253 0.61004334
0.23604242 0.84937955 0.08095489
0.20448262 0.87849235 0.69464832
0.60207529 0.38225731 0.00572777
0.60964133 0.26212721 0.64801640
0.66920636 0.90454177 0.21536275
0.59739747 0.99422001 0.60052506
0.23919840 0.39977332 0.14408633
0.12721203 0.29478528 0.55656553
0.12893971 0.76927012 0.12577644
0.21594256 0.87041373 0.54630845
0.63596413 0.48112021 0.12329144
0.51437400 0.38645496 0.57756508