Li192 P32 S160 Cl32
1.0
20.312311 0.000190 -0.000113
0.000190 20.312339 -0.000033
-0.000113 -0.000033 20.312424
Li Cl S P
192 32 160 32
Direct configuration=      1
0.09617235 0.23196622 0.34837164
0.15873467 0.01240887 0.84981348
0.12741769 0.71010789 0.45781215
0.00963516 0.59997823 0.89017450
0.73677528 0.09020047 0.34841412
0.60237740 0.14182065 0.75230689
0.59939650 0.64710289 0.26625524
0.65634859 0.51143422 0.85284066
0.16761338 0.15188517 0.48016723
0.10617108 0.10534680 0.99270944
0.09678131 0.52388391 0.41063845
0.23837932 0.59761337 0.84197905
0.51594306 0.10668293 0.41101602
0.60611192 0.24053028 0.84876937
0.59839624 0.51296012 0.41794743
0.60440932 0.73789811 0.86988535
0.11001426 0.00273968 0.38681034
0.11204428 0.13406575 0.76570540
0.15239468 0.57806405 0.26830447
0.12526025 0.55336991 0.78096118
0.66774364 0.14899396 0.49357880
0.51978159 0.10771197 0.89058691
0.65319280 0.64697142 0.49256984
0.50596479 0.60410685 0.89231131
0.02682574 0.10646327 0.44698345
0.11884412 0.23897210 0.88104260
0.00501552 0.63993171 0.37477541
0.16746988 0.66419161 0.98090870
0.60952440 0.12950543 0.27171626
0.64312972 0.01026085 0.85422693
0.51051935 0.63064893 0.38360061
0.73430572 0.64642003 0.89993307
0.11350876 0.11284877 0.26171676
0.01035916 0.09900655 0.90059727
0.23418325 0.64383587 0.39330441
0.11029335 0.72379306 0.84201991
0.63338351 0.23643170 0.38484968
0.66165521 0.14855058 0.98019317
0.64731432 0.73810653 0.39073359
0.59662790 0.59449778 0.99259463
0.23889706 0.09451626 0.34643653
0.24080093 0.14895929 0.90981967
0.11179145 0.71598780 0.28656978
0.10959690 0.53015724 0.95835679
0.60759094 0.00757274 0.40565148
0.74300862 0.10338942 0.83963173
0.73420637 0.60302915 0.35723265
0.62252282 0.62532368 0.76513381
0.13814313 0.36035378 0.02124220
0.09334236 0.40404110 0.51297861
0.14568679 0.83919587 0.00428740
0.04440226 0.88116768 0.53408913
0.66017900 0.26074131 0.10787739
0.55579026 0.36419331 0.71426999
0.60370731 0.79374215 0.20765701
0.59717964 0.75655854 0.65381238
0.00985660 0.36811629 0.14149650
0.23845954 0.35754796 0.60763206
0.23835330 0.84925446 0.10373815
0.20380912 0.88843715 0.70951600
0.61970951 0.38508221 0.02090102
0.61324363 0.25918921 0.64695545
0.64574071 0.94653900 0.21650600
0.59802744 0.97653305 0.58255786
0.23917409 0.39892555 0.15303201
0.14194659 0.25777735 0.59579882
0.11206675 0.75180242 0.13734309
0.20777090 0.85524427 0.54378557
0.64109220 0.48897240 0.14485644
0.54964009 0.38652819 0.54443818
0.50601056 0.89247814 0.10795946
0.73902401 0.86823585 0.62097564
0.13611877 0.49040336 0.14184060
0.01017207 0.35426931 0.63742622
0.01114742 0.84561371 0.14715259
0.03217520 0.86608623 0.70133248
0.51738415 0.34569715 0.15989586
0.61593130 0.49030538 0.60643714
0.63059846 0.78739566 0.04417415
0.50789544 0.85731938 0.64952480
0.11279461 0.36716485 0.24894750
0.15202458 0.48218953 0.65158307
0.09624096 0.97572933 0.08541058
0.10141551 0.98815376 0.60625156
0.74660543 0.38785460 0.14580458
0.71498929 0.35588694 0.54328338
0.60958450 0.95694829 0.04035663
0.64376307 0.83211221 0.51457647
0.10498032 0.26132706 0.15465113
0.10459148 0.34223038 0.73358581
0.14883123 0.89388629 0.22807038
0.11222536 0.75727212 0.63327012
0.65052707 0.38942917 0.24896453
0.71539411 0.39130913 0.70843732
0.73738500 0.85482042 0.10316299
0.64775782 0.90327688 0.73463272
0.49684282 0.11519948 0.12211716
0.34551724 0.14892838 0.51075176
0.45685489 0.53895314 0.11632091
0.40621594 0.64756563 0.73847380
0.85451144 0.23772234 0.10555748
0.85479327 0.14933262 0.51014067
0.84992262 0.52205815 0.15319628
0.86154825 0.51334399 0.63063999
0.36705748 0.04802256 0.22146536
0.38535206 0.13410195 0.73739310
0.33087840 0.72834261 0.09040747
0.39382372 0.73976143 0.63992351
0.86030422 0.00999689 0.13398711
0.95064863 0.04028522 0.60836762
0.88287660 0.65465526 0.23604804
0.89513165 0.74388771 0.64570250
0.38783861 0.21075238 0.20391751
0.37917187 0.23909899 0.62749015
0.46852112 0.70570005 0.14030033
0.33980781 0.65318550 0.51848793
0.98310395 0.10277229 0.09321828
0.89198547 0.14128752 0.73907568
0.86090972 0.74410914 0.10033142
0.79744211 0.62555813 0.70833004
0.26444936 0.12176923 0.12695590
0.35168059 0.01064951 0.64360354
0.27305881 0.58128287 0.14642740
0.37457187 0.50809961 0.63047011
0.75566615 0.13338710 0.11813091
0.78924203 0.05305855 0.64136710
0.75939780 0.65422738 0.09912206
0.98186169 0.58831146 0.56882428
0.37262326 0.20027028 0.04123628
0.25672495 0.14263021 0.61669733
0.39273633 0.60674636 0.01122219
0.48778163 0.59760686 0.59159623
0.89030474 0.13732816 0.23657074
0.79586519 0.21674082 0.61721100
0.90602359 0.59639134 0.01398635
0.96728690 0.64015683 0.70854468
0.38674821 0.03305236 0.04859393
0.48336208 0.09738700 0.58923881
0.39425209 0.64034577 0.24088764
0.26241055 0.60282027 0.65892858
0.84965524 0.13937321 0.00920247
0.96676613 0.20601200 0.62939382
0.98995980 0.65384216 0.14037154
0.82662848 0.64354411 0.52464382
0.49140958 0.35642984 0.35480471
0.26290063 0.39620814 0.86224089
0.29016142 0.79298919 0.38521107
0.25940771 0.89034552 0.85828693
0.76524149 0.40794446 0.36078953
0.99288905 0.41353106 0.88938341
0.84889856 0.89294165 0.26148048
0.99158192 0.87894001 0.87480571
0.26038231 0.37248896 0.38096856
0.37908898 0.37523003 0.76664489
0.46147006 0.95525729 0.38796025
0.35079185 0.98707770 0.84766839
0.91011081 0.49268659 0.39394316
0.76508296 0.39313796 0.85921172
0.85989193 0.99182166 0.35925598
0.88618331 0.78937782 0.79764378
0.39098315 0.25774371 0.35687743
0.35916159 0.25870430 0.89311599
0.37413000 0.87950925 0.48933049
0.39819041 0.83900229 0.76905182
0.98519727 0.35125843 0.34172159
0.90853356 0.34587898 0.76285954
0.88696053 0.89957176 0.48764087
0.85963562 0.79510881 0.95806758
0.37349550 0.48812645 0.37586437
0.34941435 0.35153535 0.99602537
0.29208615 0.95565745 0.37350798
0.33807081 0.76511670 0.90420085
0.90650592 0.39764078 0.48867205
0.89674200 0.40832134 0.98688187
0.75052593 0.89874336 0.35883886
0.76008606 0.89239051 0.85962752
0.38218236 0.37335036 0.48846264
0.39976360 0.48671746 0.90820975
0.45554906 0.78935872 0.35566510
0.48602827 0.90195447 0.89885098
0.85764702 0.39458122 0.26274199
0.86642403 0.27198700 0.89332405
0.97735440 0.85818065 0.35426959
0.88765263 0.96301489 0.95704339
0.38432034 0.36242335 0.25843626
0.49123382 0.37008931 0.87958270
0.35338730 0.89471948 0.26136328
0.38451795 0.88991320 0.99272228
0.84385442 0.26931678 0.40104402
0.85239620 0.49452859 0.84337204
0.82992283 0.76758786 0.40543605
0.86322435 0.95954004 0.79069501
0.00838122 0.02835632 0.00103914
0.01198043 0.99653830 0.51260743
0.99159140 0.50601670 0.96968278
0.99650727 0.49361251 0.48641915
0.48656589 0.96995086 0.00975657
0.51537192 0.01155649 0.48709632
0.48723888 0.53028198 0.99116010
0.52901440 0.50133260 0.51965847
0.02902362 0.27891422 0.25260731
0.00127232 0.27071261 0.72543572
0.01743163 0.74479922 0.21777136
0.98301653 0.75696838 0.73337859
0.47279898 0.27625337 0.26073770
0.53945026 0.24856617 0.74608173
0.50640481 0.73026956 0.25249998
0.48298756 0.75805217 0.72232155
0.26765784 0.99812083 0.26883779
0.25090011 0.97995359 0.77772260
0.22817981 0.50009070 0.22089408
0.23089770 0.51769574 0.74345774
0.75983818 0.98572092 0.27659398
0.74358932 0.98929044 0.77433935
0.75393968 0.46292286 0.24275640
0.74978093 0.48924114 0.77719743
0.28220541 0.24646339 0.98266639
0.24673849 0.22874813 0.53127102
0.24552159 0.75971036 0.00861002
0.24189614 0.74250063 0.48179129
0.75439367 0.21978459 0.03155203
0.75862964 0.23613229 0.50517743
0.75870888 0.75521500 0.02562607
0.72945150 0.74459805 0.48130102
0.43968593 0.19219902 0.44605985
0.45037026 0.18948549 0.94444888
0.43378215 0.69675815 0.44344944
0.43525681 0.69469458 0.93666421
0.94120376 0.19392389 0.43057920
0.94077194 0.19480094 0.94507272
0.92190606 0.69296375 0.44693044
0.93651826 0.69031393 0.93729697
0.18880848 0.05523986 0.06139044
0.18702811 0.05978181 0.56071977
0.18944828 0.56033380 0.05344615
0.19267563 0.55870017 0.56356581
0.68675428 0.05341701 0.05685099
0.69197271 0.05624480 0.56695137
0.69113322 0.56057339 0.06170589
0.70701816 0.56274821 0.56277996
0.30528239 0.05574242 0.44446376
0.31010476 0.05418107 0.94771186
0.30694168 0.56005162 0.44476412
0.30647570 0.55618103 0.93829128
0.80454605 0.05695627 0.44512050
0.80607909 0.05447409 0.93665898
0.81164974 0.55564469 0.43800338
0.80825887 0.56174226 0.94384553
0.05684123 0.19740209 0.06192781
0.05701492 0.18626313 0.54469574
0.06140215 0.68454733 0.04761418
0.04914156 0.68998773 0.55123370
0.57030001 0.18928729 0.05818053
0.56158035 0.18744758 0.55702354
0.55448353 0.69141453 0.05616592
0.55742368 0.69247016 0.55741792
0.12475101 0.11788522 0.37612234
0.12604379 0.12443843 0.87954770
0.12030514 0.63167448 0.36924926
0.12631660 0.61606673 0.87944319
0.62952194 0.12193301 0.38395902
0.63056203 0.12562749 0.86690972
0.62391254 0.62327717 0.37980193
0.62169787 0.62321437 0.87970136
0.44692894 0.44281176 0.19373636
0.45038335 0.43484330 0.69236558
0.44040355 0.94886165 0.19525232
0.43302245 0.93922884 0.69700476
0.93925179 0.44921703 0.19320228
0.93545055 0.43738295 0.68562893
0.93628461 0.93455005 0.18970614
0.93872977 0.94728738 0.69230138
0.19287316 0.30114230 0.31531116
0.19200740 0.30981702 0.81367180
0.19390489 0.80662613 0.30330984
0.19001355 0.80724148 0.80710152
0.70152371 0.30708747 0.31986145
0.69485778 0.31153412 0.80713989
0.68370568 0.81262268 0.30177495
0.68172166 0.81017098 0.81068458
0.30428695 0.30179779 0.19001288
0.30781100 0.30862961 0.69563371
0.31179042 0.80298946 0.18682407
0.30386307 0.80932773 0.69076403
0.81273004 0.30056858 0.19723728
0.81110394 0.31051168 0.69364749
0.80750184 0.80689909 0.19172300
0.80570207 0.81281635 0.70236548
0.05425198 0.45382672 0.31363501
0.06158513 0.44371904 0.79540168
0.05727197 0.93330198 0.30097681
0.06221381 0.94360953 0.80039158
0.56398876 0.44368131 0.31554599
0.56119041 0.44204545 0.81078689
0.56066268 0.93677920 0.31207410
0.55663016 0.94047029 0.80607139
0.12534453 0.37475409 0.13334916
0.12479422 0.37063204 0.62086641
0.12412951 0.86598370 0.11759129
0.12090621 0.87270647 0.62290113
0.63104699 0.37286010 0.13430070
0.63252624 0.37406695 0.62634643
0.62236282 0.87409081 0.12365533
0.62332284 0.86839218 0.62555700
0.18785519 0.18513933 0.19710959
0.18546157 0.19613474 0.69614719
0.19578696 0.68250404 0.19341643
0.18705845 0.68786757 0.69811812
0.68868893 0.18992098 0.20282155
0.70400264 0.18692809 0.69445968
0.68459688 0.69550445 0.19009937
0.69188216 0.69062963 0.69390786
0.45014170 0.05871039 0.31439317
0.44381591 0.05951987 0.80903935
0.44544415 0.55770252 0.31331313
0.43679541 0.55366300 0.80885972
0.94712686 0.05602301 0.30610418
0.93917874 0.05698382 0.81272621
0.93646462 0.56936730 0.30501953
0.94142923 0.56019140 0.79593537
0.05529386 0.04773888 0.18143342
0.05014740 0.06648917 0.68846826
0.05683089 0.56551541 0.19156733
0.05306228 0.55571097 0.67816961
0.56943302 0.04967892 0.19422262
0.55397066 0.05145711 0.68260425
0.55759542 0.55901266 0.19318214
0.55593194 0.55994601 0.69343129
0.31248257 0.18444880 0.30273545
0.30622193 0.18875664 0.80940181
0.31185925 0.69511113 0.31142774
0.31111183 0.69176313 0.80764607
0.81058260 0.18516647 0.31494646
0.81576503 0.19625465 0.81451378
0.80025947 0.69400859 0.31113966
0.80421216 0.69526536 0.81234381
0.38089179 0.12130965 0.12754711
0.37250516 0.12389095 0.62345721
0.38005223 0.62802401 0.12599513
0.37629277 0.62341605 0.62671799
0.87209839 0.12310437 0.12345967
0.87617711 0.13019474 0.62468087
0.87446181 0.63166993 0.12340801
0.88193522 0.62721320 0.62721677
0.18749274 0.44515534 0.44410050
0.19016999 0.43862062 0.94546362
0.19223430 0.93657963 0.44595785
0.18692827 0.93952284 0.94496245
0.69087439 0.43947414 0.44903860
0.69318300 0.44246604 0.94666670
0.68970112 0.93523469 0.45479641
0.68576905 0.93852288 0.94404040
0.44761198 0.30118543 0.06292977
0.45053122 0.31056592 0.56378115
0.43404288 0.80061728 0.06275388
0.44254568 0.81234906 0.55808248
0.93725890 0.31437078 0.05940010
0.94085335 0.30252179 0.55407274
0.94706046 0.80939632 0.04708426
0.93928228 0.81649729 0.55840907
0.05804936 0.31175729 0.43512812
0.05526177 0.31549628 0.94547244
0.04743136 0.80401062 0.43658431
0.06203669 0.79769143 0.92871031
0.55968555 0.30934925 0.44508156
0.56784705 0.30773039 0.94536393
0.55380736 0.80663440 0.43593832
0.55458509 0.81172913 0.94787521
0.31097055 0.44704559 0.06238329
0.30910344 0.43894409 0.55691485
0.30542985 0.94188803 0.06471598
0.29953233 0.93846156 0.56439322
0.81225684 0.44837361 0.06264792
0.81160453 0.43647900 0.55583503
0.81030653 0.94014251 0.05152260
0.81207778 0.94860657 0.56866597
0.37547343 0.37321860 0.37474164
0.37638152 0.37463990 0.88138427
0.37523778 0.87489156 0.37504914
0.37371713 0.87477967 0.87882839
0.87717155 0.38020163 0.37622259
0.88030997 0.38362600 0.87313223
0.86537441 0.87670718 0.37617081
0.87592355 0.87781202 0.87520234
0.24733582 0.99655916 0.00234642
0.24551322 0.00004094 0.50412041
0.25107396 0.49848260 0.00083622
0.24761205 0.50183220 0.50352393
0.74715189 0.99874829 0.99751060
0.74918350 0.99845948 0.50687705
0.75122515 0.50317623 0.00309742
0.75448217 0.49945098 0.50047309
0.24869309 0.24499131 0.25265956
0.24815508 0.25019492 0.75408189
0.25296360 0.74679877 0.24716555
0.24897783 0.74799552 0.74964271
0.75315882 0.24549470 0.25787442
0.75547522 0.25154840 0.75355708
0.74446937 0.75139642 0.24871165
0.74368695 0.75273141 0.75508761
0.99740289 0.99416728 0.24501974
0.99911634 0.00417332 0.74975082
0.99788257 0.50920823 0.25062830
0.99689742 0.49681087 0.73906954
0.50536399 0.99888098 0.25487567
0.49742691 0.99843630 0.74741884
0.50458531 0.49883287 0.25485922
0.50079457 0.49909223 0.75265456
0.99769688 0.25501885 0.00358299
0.99955824 0.25098394 0.49024710
0.00215549 0.74461464 0.99156649
0.98707093 0.75065099 0.49847100
0.50875068 0.24787616 0.00288221
0.50259144 0.24849218 0.50245474
0.49388894 0.74861403 0.99851304
0.49824544 0.75114312 0.49943036
Direct configuration=      2
0.09915168 0.23299943 0.34959548
0.14478123 0.00915619 0.84656457
0.13564103 0.70825521 0.45797754
0.00651945 0.60266472 0.89266535
0.73921675 0.11895125 0.37574070
0.58922889 0.13850237 0.75427140
0.55613259 0.63870936 0.28951606
0.65241245 0.50835465 0.85027030
0.15505301 0.15394201 0.48547814
0.10126095 0.09959923 0.98792880
0.12917475 0.52145291 0.38023943
0.23223597 0.60103891 0.85317100
0.51270391 0.16054672 0.35471253
0.60775042 0.23474362 0.86125940
0.59730923 0.50547998 0.40313797
0.60806784 0.73864501 0.86969864
0.10182828 0.00460218 0.40503971
0.08380701 0.15621254 0.76610236
0.16245057 0.59468278 0.25698797
0.12423778 0.53702686 0.80223910
0.64794536 0.14639086 0.50026482
0.50951113 0.10000664 0.90628215
0.68004515 0.64190699 0.48564855
0.50559326 0.60585338 0.88812603
0.01057429 0.10605611 0.39997707
0.13454609 0.23715276 0.89470372
0.01397662 0.64060812 0.37109961
0.16357237 0.67158460 0.98539466
0.62983800 0.12245062 0.26949382
0.61304895 0.00710865 0.88040159
0.52805197 0.61415362 0.45642036
0.73488705 0.63913247 0.88843719
0.12592306 0.10857840 0.26139175
0.00165638 0.09991757 0.89785367
0.24291550 0.64343425 0.39378524
0.09683005 0.72587815 0.84278309
0.65349971 0.24288646 0.40415020
0.66245493 0.14347490 0.97756743
0.64755169 0.73467747 0.39050241
0.59859938 0.59851628 0.99008095
0.23836171 0.09208650 0.35222905
0.23205409 0.11885265 0.87232294
0.11924304 0.72786024 0.29068213
0.10725685 0.53903165 0.97071893
0.59859989 0.01821055 0.40996564
0.73140392 0.09070967 0.83239418
0.72437045 0.58602928 0.33991509
0.62274200 0.62725950 0.76134366
0.08717757 0.39991837 0.01832052
0.11196062 0.44794255 0.53153892
0.14624671 0.84458586 0.01263308
0.04378462 0.88896383 0.53371823
0.64585447 0.26270267 0.11067008
0.54153486 0.36456628 0.70736752
0.61498200 0.78840421 0.20923034
0.60754877 0.75629459 0.64388498
0.00949701 0.36107405 0.15087460
0.24130137 0.35017690 0.60189409
0.24354870 0.85474290 0.11078374
0.20032258 0.88411501 0.71462148
0.61549103 0.39049500 0.01641459
0.60704825 0.25774446 0.64386383
0.65056632 0.95085376 0.21002050
0.59714664 0.97543104 0.58337353
0.23447261 0.34597125 0.09357038
0.13599641 0.26376328 0.59947329
0.11613841 0.75708091 0.14163915
0.20988773 0.86648765 0.55215832
0.64997028 0.49463027 0.14052780
0.54488503 0.38715290 0.53421934
0.51059486 0.87129084 0.13114576
0.74077109 0.86994444 0.62770175
0.15124239 0.48363645 0.14904524
0.01310100 0.38957091 0.60797382
0.01590698 0.84897103 0.15098033
0.02823078 0.86539819 0.70301576
0.52321765 0.35956800 0.15102473
0.62055522 0.48824626 0.61991912
0.63560148 0.78819521 0.04353993
0.50970062 0.85477047 0.64585470
0.11774385 0.36587730 0.24162287
0.16745756 0.48541918 0.66365085
0.10724989 0.97971296 0.10173044
0.12353751 0.99154715 0.63120030
0.75169535 0.36922360 0.11020227
0.70934493 0.35293439 0.54489140
0.60637520 0.95438435 0.04043218
0.65263059 0.83912792 0.51064681
0.10116510 0.25833102 0.14746005
0.11217640 0.35859858 0.73739350
0.16041289 0.90290890 0.23752140
0.10874496 0.75949777 0.63781785
0.66073403 0.39799733 0.24421432
0.70586124 0.38547285 0.70689093
0.74185960 0.85332832 0.11274475
0.64695576 0.90413585 0.73446182
0.49647402 0.11887570 0.12154853
0.34234185 0.15509312 0.51432008
0.46452820 0.54351230 0.11342707
0.33760419 0.59352645 0.73013734
0.88268397 0.23152457 0.13315796
0.86686305 0.13515377 0.51252381
0.91959105 0.51937576 0.09450664
0.88587380 0.50636392 0.61687449
0.36346262 0.04606927 0.21706061
0.38075623 0.13826823 0.73976107
0.29958401 0.71014348 0.11165153
0.38616169 0.74147949 0.64298081
0.83817783 0.00327554 0.14926468
0.95306757 0.04416658 0.60737671
0.86234074 0.61670535 0.22916770
0.90153132 0.73957945 0.65304791
0.38849531 0.20486762 0.20911195
0.44853496 0.21993916 0.63818356
0.46118126 0.70930219 0.14050424
0.35853990 0.64987521 0.50819729
0.97635667 0.08903413 0.09526985
0.89185379 0.15051722 0.74185343
0.86593322 0.74370740 0.10591271
0.79887137 0.61739701 0.70071055
0.26462021 0.12677215 0.11969598
0.35077214 0.01548524 0.64621891
0.29155902 0.54711364 0.14005806
0.40124274 0.51526363 0.59469447
0.75470175 0.13960251 0.10995520
0.78874087 0.04341490 0.64860599
0.76229737 0.65272580 0.10289040
0.99815715 0.58758431 0.58644455
0.37306912 0.21257723 0.05015422
0.26004770 0.15735505 0.62164642
0.39307624 0.61146889 0.01166819
0.48256526 0.64976003 0.64875021
0.87098517 0.11569814 0.24044924
0.78035987 0.20332820 0.61252079
0.87673962 0.63005484 0.00233005
0.96907422 0.63353700 0.72084535
0.39101381 0.03767081 0.03730724
0.47650524 0.08379369 0.57900742
0.38093264 0.62447299 0.24246464
0.25563939 0.64708479 0.60094643
0.84834631 0.13881286 0.01072853
0.95749130 0.20923602 0.63137875
0.99147955 0.65844531 0.14789944
0.85157012 0.63956106 0.52262860
0.49022379 0.34669369 0.34465071
0.25703853 0.41607221 0.85430789
0.33321856 0.77739945 0.40782316
0.25496661 0.88657271 0.85674407
0.76194575 0.40589349 0.36556918
0.96326647 0.29187103 0.86274820
0.85511552 0.89386092 0.26356418
0.99029713 0.88720610 0.88272073
0.26273012 0.38089929 0.36736052
0.37112574 0.37827167 0.76326984
0.46254907 0.96667130 0.38315272
0.34859549 0.98533107 0.84560794
0.88678028 0.49926807 0.38121317
0.75631854 0.38560985 0.85460209
0.90399205 0.98225245 0.40450367
0.89705303 0.77335230 0.82983134
0.38571826 0.25978803 0.35178277
0.34365950 0.26739272 0.89980551
0.40175691 0.90735435 0.49330466
0.39942826 0.84359129 0.76536539
0.98731419 0.35444757 0.34069361
0.88856254 0.33906763 0.75733957
0.86756123 0.86819665 0.49307704
0.84495358 0.83406331 0.98040171
0.41115451 0.48510220 0.40252802
0.35798250 0.36344306 0.99585106
0.28933808 0.94707032 0.37429987
0.35344945 0.75929031 0.88398359
0.90630846 0.39850680 0.48695838
0.91273084 0.40399440 0.97374483
0.75676471 0.90592806 0.35208710
0.76037746 0.89327519 0.85404736
0.36834257 0.35959148 0.48190128
0.39781148 0.49141852 0.90356870
0.47268930 0.80039336 0.35176903
0.48126583 0.90654441 0.90485123
0.85020579 0.40809883 0.26045796
0.82652925 0.26286043 0.91474291
0.98143885 0.85352716 0.35690786
0.89090611 0.97421725 0.95287995
0.36055704 0.39022568 0.25409914
0.48464726 0.36980447 0.87531547
0.36862380 0.88977647 0.26540786
0.35376761 0.86120208 0.99032691
0.85694245 0.27267964 0.39030056
0.85201923 0.47853013 0.83939018
0.82992648 0.76171552 0.39570803
0.86339672 0.95394304 0.78476321
0.99835763 0.02596087 0.99321409
0.99933194 0.99768511 0.48376573
0.00030926 0.49057434 0.00183318
0.99392656 0.48221730 0.52721101
0.50356151 0.00113442 0.98165695
0.50653922 0.99650384 0.49575364
0.48802427 0.53248295 0.98917164
0.50153024 0.49715664 0.48802500
0.02661222 0.28222087 0.24647383
0.97799305 0.24079205 0.75108131
0.02605655 0.74967218 0.22155003
0.99075719 0.75151696 0.74356098
0.47928756 0.24928829 0.27409149
0.51921220 0.24625290 0.73127161
0.50949651 0.74439149 0.24645979
0.48815666 0.75564315 0.71238532
0.26178745 0.99769944 0.27082781
0.24379150 0.97997593 0.77884988
0.23421030 0.50524378 0.23307339
0.23566412 0.50869551 0.76770932
0.76483876 0.97552416 0.24548496
0.74894549 0.98503572 0.76049638
0.74884520 0.47916642 0.26916788
0.74434284 0.47937112 0.77542275
0.28233570 0.27081802 0.00474042
0.23935515 0.23481238 0.53224636
0.24407646 0.76633842 0.01910021
0.25420735 0.72289978 0.49129038
0.75425236 0.21955630 0.01573329
0.73135727 0.23729441 0.50397819
0.76217841 0.75730389 0.02991743
0.73483268 0.74889166 0.47906889
0.43382579 0.19259170 0.44232728
0.44290195 0.19693463 0.94628007
0.44103752 0.69989041 0.43479212
0.43945891 0.69606529 0.93644391
0.93716910 0.19450889 0.43446219
0.93339141 0.19569391 0.94222472
0.93088489 0.69312520 0.44511564
0.94106167 0.69849518 0.93143192
0.18848755 0.05760739 0.05710670
0.19239065 0.06409907 0.56487897
0.19158619 0.56538235 0.05980080
0.19176473 0.55139790 0.55834271
0.68737916 0.05004572 0.05750167
0.69297127 0.05491515 0.56561267
0.69742196 0.56224028 0.05415853
0.70278030 0.55897610 0.56944813
0.30853288 0.05653931 0.44556752
0.30695210 0.05533784 0.94136451
0.31404954 0.55587365 0.44230360
0.30562255 0.55942840 0.94148497
0.80953516 0.05402729 0.44412198
0.80151929 0.05554973 0.93486770
0.80196176 0.55991888 0.44233096
0.81066652 0.55750723 0.93243455
0.04891806 0.18657435 0.06213351
0.05308063 0.18861977 0.55132048
0.05985359 0.69096303 0.05052782
0.05858738 0.68798332 0.55181988
0.56846313 0.19019198 0.05335945
0.54847778 0.18672645 0.55969690
0.55534093 0.69396092 0.05721375
0.55454465 0.68914103 0.55419779
0.12428134 0.11871361 0.37573306
0.11652773 0.12306513 0.87461732
0.12969887 0.63528501 0.36417283
0.12102748 0.61966094 0.88575949
0.62562701 0.13056462 0.38409901
0.62038028 0.12085573 0.86839936
0.62208349 0.61930787 0.38606168
0.62125670 0.62238419 0.87567424
0.44612556 0.44413378 0.18806368
0.44282089 0.44026388 0.68793349
0.44441905 0.95065042 0.19271458
0.43115370 0.93771989 0.69299360
0.94151727 0.45030446 0.19274353
0.93829185 0.43117182 0.69396435
0.94007185 0.93643329 0.19068702
0.93805458 0.94789055 0.68638046
0.19319671 0.30228950 0.31147720
0.19082681 0.31424542 0.81813006
0.20290918 0.81358860 0.31199209
0.18470481 0.80166889 0.80585496
0.69885089 0.31022426 0.31566174
0.68237075 0.30587386 0.80340412
0.69243021 0.80783742 0.30446941
0.68634679 0.80701585 0.80711046
0.30748079 0.30027579 0.18901065
0.30572453 0.30566698 0.69518979
0.31954640 0.80659897 0.19139710
0.30008648 0.80934551 0.69270079
0.81298594 0.30825198 0.19503746
0.79710011 0.30094211 0.68805449
0.81561645 0.80208747 0.19653551
0.81170661 0.81035120 0.70090668
0.05958738 0.45089359 0.31052013
0.05610774 0.43501466 0.81150527
0.05994516 0.93521651 0.30618038
0.05665461 0.94207728 0.79840909
0.56318365 0.43512617 0.30685342
0.55464480 0.44134211 0.80652203
0.56355472 0.94509225 0.31181688
0.55175606 0.93630584 0.80432880
0.12312551 0.37168676 0.12507196
0.12916517 0.37861842 0.62497360
0.13007329 0.87130313 0.12672350
0.11950970 0.87560283 0.62623353
0.63729797 0.37814469 0.12876516
0.62265563 0.37326163 0.62356898
0.62571823 0.87253209 0.12493982
0.62600297 0.86879683 0.62326220
0.18739330 0.18701747 0.19205321
0.17941287 0.19924446 0.70112873
0.20366796 0.69304062 0.19528132
0.18645723 0.68470861 0.69164474
0.69208449 0.19411784 0.19734816
0.68985588 0.17954483 0.69398943
0.68887627 0.69206891 0.19037761
0.69659423 0.68817608 0.68988907
0.44914378 0.06398497 0.30756138
0.44064359 0.05795652 0.80686086
0.45364842 0.55767340 0.31227379
0.43320026 0.55808742 0.80498170
0.94320188 0.05192567 0.31023885
0.93379900 0.05546101 0.80904202
0.94432290 0.56997001 0.30402330
0.93931466 0.55284895 0.80468414
0.05440705 0.05143128 0.18635930
0.04878141 0.06764996 0.68832452
0.06206635 0.56254265 0.18757754
0.05864341 0.55017946 0.69481399
0.57209618 0.05423850 0.19095124
0.55100558 0.04919340 0.68096752
0.56205254 0.55808369 0.19241286
0.55383553 0.56038601 0.69143874
0.30827603 0.18248071 0.30204576
0.30250767 0.19319164 0.81343753
0.31818859 0.69755387 0.31466385
0.30564394 0.68587916 0.80428075
0.81159253 0.19174303 0.31173176
0.80157151 0.18970529 0.81457672
0.80166967 0.68137257 0.30954342
0.80759407 0.68877870 0.80723938
0.38051033 0.12151161 0.12438305
0.37510713 0.12699417 0.62524903
0.37974878 0.62442873 0.12708396
0.37040335 0.62636720 0.62164181
0.86711543 0.11684183 0.12569920
0.87097271 0.12753955 0.62676777
0.87945237 0.62945907 0.11633428
0.89227623 0.62281815 0.63005910
0.19335098 0.44045415 0.44234842
0.18443162 0.44600518 0.94765487
0.19247766 0.93954164 0.45209645
0.18547860 0.93895964 0.94427894
0.68676938 0.43812241 0.45332380
0.69404850 0.44081954 0.94434565
0.68860119 0.94079040 0.44665383
0.68651391 0.93492253 0.94318884
0.45229707 0.30882181 0.06482541
0.44525552 0.31177700 0.55851373
0.43629212 0.80436589 0.06096018
0.43967237 0.81158453 0.55614639
0.93778733 0.31051031 0.06177636
0.93995130 0.30499933 0.55564160
0.94694592 0.81347239 0.05065731
0.94604449 0.81116715 0.56331234
0.05654003 0.30978189 0.43561158
0.05145079 0.30711716 0.94482131
0.05475418 0.80424711 0.44053838
0.06370431 0.80559376 0.93284158
0.55722719 0.30592446 0.44101078
0.56457746 0.31116138 0.94227675
0.55901816 0.81013452 0.43967571
0.55719054 0.81459662 0.94694903
0.30534821 0.44827152 0.06476134
0.31399564 0.43734245 0.55571704
0.30820574 0.94582254 0.06042670
0.30493005 0.94195383 0.56562666
0.82015289 0.44779653 0.05297292
0.81024437 0.43443458 0.55631854
0.81250245 0.93885526 0.04916111
0.81003387 0.94424021 0.56469467
0.37715430 0.37573286 0.36863702
0.37074822 0.38056326 0.87901408
0.38526797 0.87895667 0.37959435
0.37062387 0.87265113 0.87616960
0.87747223 0.38511077 0.37332693
0.86918837 0.36444796 0.87136063
0.86862989 0.87330542 0.37833785
0.87540204 0.88095611 0.87738628
0.24669676 0.99766887 0.99882043
0.24899684 0.00348040 0.50701838
0.24736429 0.50250055 0.00246992
0.25432566 0.49811050 0.49999323
0.74687471 0.99660427 0.99606158
0.74910528 0.99783651 0.50401673
0.75599810 0.50169497 0.99679860
0.75050414 0.49799533 0.50528316
0.24850608 0.24466496 0.24951082
0.24434880 0.25451162 0.75581707
0.25978941 0.75463233 0.25443334
0.24470916 0.74434037 0.74764727
0.75323383 0.25167212 0.25429579
0.74318300 0.24366133 0.75171138
0.74994429 0.74501327 0.24922382
0.74927568 0.75011316 0.75140066
0.99957601 0.99337504 0.24920302
0.99551652 0.00465151 0.74701817
0.00357939 0.50814394 0.24857008
0.99852312 0.48934783 0.75102490
0.50804282 0.00391298 0.25175692
0.49442891 0.99643922 0.74583832
0.50609839 0.49725481 0.25066057
0.49517909 0.50067641 0.74984495
0.99436388 0.24883438 0.00473601
0.99898545 0.25160305 0.49289675
0.00257968 0.75147371 0.99300406
0.99499622 0.74848065 0.50066214
0.50657236 0.25187491 0.00155222
0.49624385 0.24903519 0.49800781
0.49682887 0.75191842 0.99860076
0.49933935 0.75408580 0.49846792
Direct configuration=      3
0.09533251 0.22754655 0.33622111
0.15877396 0.00945719 0.85030481
0.12744768 0.70607576 0.46188294
0.00521993 0.59660534 0.89714843
0.74417938 0.14161116 0.39072619
0.59070226 0.15814433 0.76632296
0.55502093 0.62194836 0.30250743
0.61902282 0.50915998 0.87386282
0.14241903 0.13700545 0.47742883
0.10668035 0.10649039 0.99050598
0.09741050 0.52465350 0.40628016
0.23177852 0.60067700 0.85802498
0.51575920 0.15201545 0.34429423
0.65390887 0.23964144 0.91270740
0.59777418 0.50330331 0.40919113
0.61816024 0.73896499 0.86959974
0.10333549 0.00004633 0.39840078
0.11855733 0.13872018 0.76402700
0.15048929 0.57845281 0.26537436
0.12490990 0.55657608 0.78783758
0.64975687 0.14758199 0.48860071
0.50754215 0.11783766 0.89816096
0.67424109 0.64791719 0.49647397
0.50414675 0.65072677 0.83303562
0.01110037 0.09962991 0.39476107
0.14945867 0.23867400 0.90175926
0.00635309 0.64290849 0.36801349
0.15635081 0.67607534 0.98250274
0.65353371 0.10241289 0.26437719
0.60772189 0.01582434 0.89053904
0.53341526 0.61074202 0.47184972
0.73024989 0.63942263 0.89116556
0.14356008 0.08687386 0.25609625
0.01219503 0.10581122 0.88915535
0.23563858 0.63289440 0.38582336
0.08742057 0.72674149 0.83845955
0.62657118 0.24171943 0.36381227
0.61367002 0.11641242 0.99600831
0.65334784 0.73267586 0.39254395
0.57713456 0.60172668 0.98183715
0.23911444 0.08758788 0.35076376
0.24395855 0.13719453 0.90346227
0.11690861 0.72469601 0.29434182
0.10840847 0.53973864 0.96581343
0.59292764 0.01940489 0.40983616
0.73163918 0.10588440 0.85161121
0.72687094 0.58318567 0.34888918
0.65360058 0.60095926 0.75934593
0.09862051 0.39473735 0.01510242
0.10462119 0.45720769 0.53678849
0.14268494 0.84475041 0.01404889
0.04139027 0.88927797 0.53488404
0.64516738 0.26544343 0.10865477
0.59521376 0.35514780 0.73799673
0.61424654 0.78969255 0.20770207
0.62303889 0.76080942 0.64260300
0.00984005 0.35331583 0.14986438
0.24182572 0.34986787 0.60444696
0.24302596 0.85023056 0.11030523
0.20007626 0.88047093 0.71388990
0.61203483 0.38967382 0.01625081
0.59960991 0.26175980 0.64313022
0.64530627 0.94296340 0.21485910
0.59774471 0.97922055 0.58531834
0.23599388 0.39137863 0.14694416
0.13495962 0.30027660 0.53295238
0.11219602 0.75381218 0.14640281
0.21264645 0.85742607 0.54346844
0.64042149 0.49572329 0.13309287
0.51281603 0.39546583 0.59159420