Li192 P32 S160 I32
1.0
20.433000 0.000000 0.000000
0.000000 20.433000 0.000000
0.000000 0.000000 20.433000
Li I S P
192 32 160 32
Direct configuration=      1
0.10687609 0.00036738 0.38309305
0.15673484 0.08511945 0.76929200
0.24493647 0.60035791 0.38251498
0.12627359 0.73650114 0.84586631
0.64642915 0.02556896 0.32791343
0.58198728 0.00224320 0.90090999
0.62076765 0.51421752 0.38850514
0.60795552 0.50246904 0.89619343
0.27048910 0.34727311 0.39509772
0.35579216 0.37834933 0.75174241
0.38426699 0.87964403 0.49369643
0.34264594 0.99194975 0.85004027
0.89997503 0.37965393 0.49770377
0.76130947 0.37088740 0.84081275
0.88559168 0.98262935 0.39885204
0.84718940 0.98599628 0.85894982
0.34953561 0.00894365 0.14527545
0.38045382 0.10555785 0.73498900
0.37061544 0.63053040 0.01152935
0.35857417 0.51876494 0.65399860
0.89397023 0.10848315 0.00869430
0.86810595 0.01631293 0.61854119
0.76591470 0.61909494 0.13192327
0.77744218 0.63992333 0.64775253
0.12337271 0.50197708 0.09634878
0.11484306 0.49296870 0.60067243
0.10780374 0.85979275 0.23375513
0.15300161 0.97111520 0.63823074
0.60206696 0.50475612 0.10644424
0.63967882 0.47848411 0.64058844
0.60123451 0.88893680 0.00854497
0.62403278 0.98509967 0.63381818
0.37172768 0.13913565 0.01023177
0.26717685 0.13746183 0.62699094
0.36401661 0.74708828 0.09487622
0.40796791 0.60534298 0.51173847
0.89164017 0.24719234 0.14771372
0.88670927 0.12617073 0.51916334
0.84429042 0.67728586 0.01897376
0.88190224 0.65688967 0.52318619
0.38669802 0.44263605 0.47848177
0.47757520 0.36056235 0.84870791
0.35321621 0.76197935 0.39484170
0.38689538 0.91205770 0.98704863
0.98812205 0.38519563 0.35758288
0.85861565 0.25535306 0.88624416
0.96673607 0.84328839 0.32482389
0.75655099 0.84567345 0.89909075
0.15614714 0.35500546 0.01665650
0.23079826 0.36908009 0.61743031
0.13097320 0.98003905 0.13889598
0.10737529 0.89943730 0.52344660
0.60585026 0.39064489 0.01275999
0.60323683 0.40606502 0.50955309
0.72601360 0.83235728 0.09838461
0.58104294 0.90234326 0.51391599
0.14771832 0.11452317 0.48718477
0.07928680 0.03153189 0.90469580
0.10276691 0.60861377 0.48720835
0.03949944 0.63445736 0.78212931
0.64670547 0.12415005 0.49252657
0.62225627 0.11031556 0.99861944
0.62944944 0.59780315 0.50255089
0.72604392 0.62821950 0.86452802
0.00910993 0.39260529 0.11047178
0.11094570 0.39765567 0.50210450
0.01849346 0.84412870 0.14090330
0.99352695 0.87832871 0.62986661
0.52056234 0.37116648 0.13770405
0.52335405 0.39702142 0.61695760
0.60057754 0.76479264 0.14969425
0.52208118 0.82383057 0.68317815
0.37664893 0.47573332 0.30297279
0.37583823 0.27020589 0.86575719
0.49429080 0.84721762 0.38405787
0.47431284 0.86568721 0.85462420
0.90468325 0.49678121 0.39928957
0.82621968 0.35326854 0.97714307
0.85052761 0.89565089 0.26549985
0.89600461 0.89921252 0.00166683
0.01265415 0.08916016 0.39344089
0.00009357 0.14489005 0.85444976
0.13973306 0.50420051 0.35348958
0.03181519 0.59248188 0.93243662
0.54217685 0.06592999 0.39889924
0.50149266 0.14426616 0.84466394
0.52233851 0.63149996 0.37340711
0.64165379 0.64900928 0.99172669
0.48539486 0.11719010 0.10405661
0.37247351 0.01591560 0.64386409
0.48793738 0.63976168 0.14094551
0.48836375 0.64092287 0.63559230
0.96882553 0.08161584 0.12761842
0.99612188 0.14549203 0.63553180
0.90537304 0.52103968 0.07406841
0.85458552 0.50772365 0.65055511
0.10582521 0.25261043 0.14547699
0.14566171 0.26457275 0.62075160
0.09679501 0.89911964 0.00549602
0.11245264 0.76530957 0.66460337
0.65128580 0.26996262 0.09317126
0.64947229 0.25168667 0.60494834
0.68078458 0.88324137 0.22655146
0.62807444 0.76647940 0.61735030
0.37880411 0.23913602 0.14182260
0.36544719 0.14129669 0.50969573
0.40531869 0.68102401 0.22196378
0.36204107 0.72647400 0.59821986
0.87626928 0.12218487 0.23829463
0.88149009 0.24392225 0.62332871
0.98569693 0.65549297 0.13143597
0.00022100 0.58727229 0.62292883
0.50743052 0.37505166 0.37399537
0.35303084 0.35077815 0.98712748
0.40450311 0.87888746 0.27141326
0.33942725 0.76799207 0.90681385
0.81457757 0.39985705 0.28788021
0.98818416 0.37363884 0.89155280
0.84774912 0.77063708 0.39659445
0.92179611 0.76842171 0.86180488
0.11773134 0.23107601 0.34536498
0.12435620 0.14676043 0.98795011
0.01913727 0.62251919 0.35392737
0.14297676 0.51108747 0.84833925
0.62478648 0.25842074 0.36874299
0.62891258 0.24071605 0.90411038
0.64631924 0.72860099 0.40318485
0.61370733 0.74109620 0.87316669
0.39279891 0.29368224 0.29187147
0.25833312 0.39929384 0.87381630
0.41920051 0.97903031 0.39484501
0.35195927 0.87384507 0.76653440
0.77953966 0.35210983 0.41180263
0.86206242 0.47493665 0.88561845
0.76340813 0.86629127 0.39981051
0.98319917 0.89359028 0.89355005
0.37055036 0.10474880 0.23566397
0.48192419 0.10731280 0.59393197
0.38210860 0.50986162 0.12920382
0.38619389 0.63830696 0.73906495
0.82123004 0.02475209 0.12488790
0.87862090 0.15295674 0.74454496
0.85271134 0.51926690 0.19821116
0.85944992 0.62060193 0.75735550
0.15539285 0.09731398 0.26732590
0.12700928 0.23541050 0.87183065
0.11885624 0.62571705 0.26211548
0.16798936 0.65073772 0.97395893
0.59698390 0.16665072 0.25515670
0.63189056 0.11438886 0.77392418
0.61223566 0.64410260 0.26958061
0.49964584 0.60840487 0.89026730
0.10432790 0.36557165 0.23887561
0.01809062 0.34383005 0.65004655
0.15148072 0.75266914 0.10069883
0.13141632 0.88602264 0.74847304
0.62365224 0.37985846 0.23883555
0.61007677 0.37222684 0.73754049
0.51508466 0.88621026 0.11385346
0.66630807 0.89861908 0.72642683
0.37919396 0.29131754 0.45163181
0.41056633 0.48628493 0.90813823
0.28267805 0.91786048 0.34428708
0.24461717 0.87654108 0.89540289
0.90763323 0.26508209 0.35940748
0.89190467 0.35744376 0.76023565
0.91149246 0.88917624 0.47922291
0.85684467 0.88045393 0.76403842
0.24548916 0.37334000 0.13288093
0.14640490 0.39568251 0.73181595
0.24503995 0.87472725 0.15409437
0.22156863 0.83538259 0.59521480
0.73970430 0.38994257 0.13672381
0.74703372 0.38517569 0.63837008
0.64234802 0.99017340 0.14790151
0.73767701 0.87066404 0.59614798
0.25456567 0.16060898 0.10451960
0.41213192 0.23892514 0.64895012
0.26513672 0.60858244 0.15738078
0.26251363 0.63408132 0.60067707
0.75391193 0.14538171 0.11926057
0.76229710 0.11347568 0.63036100
0.87317709 0.70843289 0.18302090
0.92306404 0.73003986 0.64790149
0.24404512 0.13939303 0.38659432
0.23906931 0.14058898 0.88743342
0.16659412 0.72527195 0.38747534
0.20820759 0.62102553 0.77488680
0.73973755 0.14561697 0.38618112
0.74184299 0.11096869 0.88040011
0.74234586 0.59823909 0.35909521
0.60385636 0.63385849 0.76093322
0.98588645 0.00347125 0.01077211
0.00447947 0.00018532 0.49411877
0.00346691 0.48160146 0.98860238
0.99850630 0.50668620 0.49448438
0.50980727 0.00136243 0.02866119
0.48651129 0.98962270 0.50715511
0.51269950 0.50187089 0.00585912
0.50685874 0.50212660 0.50204176
0.00322851 0.26039677 0.24593629
0.98729861 0.23422869 0.74390064
0.99367395 0.74501148 0.22743635
0.00493100 0.75966880 0.75600845
0.51575677 0.28519583 0.25281323
0.47420797 0.26248633 0.77269042
0.50752163 0.75924771 0.24641732
0.47456083 0.74302001 0.76630402
0.24424655 0.98668842 0.23050411
0.26479246 0.01490969 0.74579547
0.24158399 0.51856779 0.26080488
0.23895227 0.50017844 0.72865151
0.74805572 0.99093051 0.25989147
0.75396415 0.99876620 0.73578718
0.72949818 0.50010194 0.23839970
0.75178546 0.48957553 0.76336124
0.23207894 0.24138609 0.98598224
0.26143668 0.24877416 0.48655251
0.26162553 0.76068101 0.00418506
0.25620063 0.74516383 0.51358914
0.74126784 0.24477189 0.00038656
0.75600814 0.24147943 0.52585428
0.73708541 0.75836583 0.98724492
0.75449525 0.74186206 0.48868300
0.12783387 0.11682505 0.37453900
0.12115303 0.12400930 0.87769496
0.12175814 0.61275016 0.37573076
0.12899599 0.62324768 0.86761428
0.62296859 0.12738207 0.37071465
0.61513585 0.12199817 0.88394321
0.62588412 0.61832214 0.38750428
0.61103307 0.62958694 0.88291540
0.38755686 0.38240578 0.37142846
0.36421258 0.38023489 0.87369717
0.37821736 0.86998698 0.37543950
0.36525445 0.87599983 0.87565273
0.88411912 0.38494600 0.38255030
0.87655102 0.36917519 0.87157954
0.86865158 0.87698661 0.37391068
0.87706185 0.87588413 0.88671649
0.37199103 0.12222271 0.12602476
0.37369918 0.12936208 0.62335989
0.38097530 0.63692157 0.12609833
0.37628373 0.61637759 0.61781465
0.86292720 0.12728741 0.12626761
0.88612484 0.12749222 0.62966758
0.88513307 0.61874185 0.11494098
0.88742874 0.62475134 0.63778925
0.13297144 0.36610739 0.12431564
0.11785250 0.38342130 0.62125805
0.12071951 0.87011650 0.12094028
0.11522171 0.87260070 0.63128277
0.62796355 0.37509615 0.11813576
0.62823304 0.36826509 0.61544052
0.62143939 0.87100462 0.12214747
0.62178211 0.87242959 0.62893408
0.06099834 0.44906073 0.30463861
0.05144287 0.42352772 0.80191907
0.05091368 0.93645820 0.31277449
0.05464833 0.94666331 0.81565990
0.56375253 0.44926050 0.30652561
0.55891332 0.43245056 0.82110801
0.55761482 0.94311451 0.31434169
0.56097544 0.93629578 0.80169534
0.45038843 0.07400364 0.31488078
0.43850775 0.04222959 0.81212816
0.44328315 0.57066444 0.29711856
0.44300960 0.54789883 0.80873756
0.93230603 0.04519440 0.31304549
0.94420910 0.05945434 0.81136007
0.92839743 0.56559044 0.30061093
0.94370233 0.54477069 0.78916224
0.44494381 0.45021457 0.19269828
0.43864394 0.43172534 0.69554979
0.44405578 0.95380636 0.19901465
0.43904816 0.93492134 0.69000030
0.93775579 0.44030478 0.18914793
0.95492107 0.42667549 0.68670080
0.94708206 0.92748532 0.19571976
0.92903284 0.95175407 0.69810168
0.05294475 0.04947614 0.19242370
0.06205104 0.04489083 0.68710060
0.06008617 0.56168634 0.19148557
0.07312044 0.55081059 0.69718705
0.56365821 0.06276583 0.20149486
0.54957776 0.05773303 0.68867673
0.56286247 0.57058010 0.19733071
0.55852108 0.54301496 0.68233269
0.32654707 0.04848449 0.44394787
0.30912664 0.06195783 0.93169776
0.32568173 0.54518677 0.44256598
0.31491821 0.55416197 0.93473680
0.81174033 0.06524512 0.43800418
0.81832845 0.04830930 0.94960898
0.81110678 0.55711673 0.44967934
0.80980140 0.56993328 0.94428513
0.30629539 0.44246752 0.06137885
0.31414583 0.43062647 0.55836910
0.29217998 0.95539852 0.05628781
0.30702986 0.94066744 0.57086129
0.81637899 0.45010843 0.05390698
0.81711090 0.43099573 0.55109297
0.79508152 0.93294723 0.06210367
0.80229747 0.93138897 0.53132288
0.20259404 0.44269738 0.43032705
0.17934637 0.45150653 0.95486945
0.19490029 0.94185715 0.44754721
0.17517343 0.96707308 0.93713267
0.69609271 0.43562499 0.44489754
0.69686445 0.44235924 0.94284725
0.68232875 0.95430583 0.42231520
0.68750123 0.94519976 0.93574989
0.18026269 0.07230539 0.06357195
0.19905569 0.05759963 0.56309970
0.20049172 0.57161833 0.04696300
0.19509626 0.55469132 0.54565745
0.69678360 0.05240531 0.05933090
0.70039509 0.05196716 0.56036391
0.69416029 0.56486973 0.05995005
0.70712859 0.54071175 0.57598990
0.42584455 0.30221168 0.05348590
0.44825813 0.30429149 0.55314294
0.43898173 0.81848547 0.05841595
0.46192931 0.81056781 0.56317058
0.93515830 0.31398982 0.05571107
0.95244065 0.30064945 0.56368778
0.95060364 0.80193674 0.05173861
0.94792603 0.80563595 0.55986950
0.06090783 0.30683924 0.42788539
0.06484823 0.30357410 0.95387221
0.07636729 0.80125549 0.44779026
0.06666838 0.80833195 0.92755922
0.57740723 0.30847123 0.44985753
0.54891558 0.32369106 0.94312122
0.57153573 0.79762095 0.45386828
0.54438382 0.80852592 0.93586800
0.45215690 0.19421020 0.43049322
0.44526323 0.19518833 0.93735521
0.45104015 0.69523989 0.44961881
0.43494443 0.70196633 0.94848643
0.95465737 0.19261985 0.43791167
0.93253445 0.20017768 0.93890492
0.95659069 0.70405989 0.43346232
0.95520341 0.67911951 0.94413337
0.03561951 0.17300757 0.05887587
0.07087095 0.18844758 0.55462468
0.07573085 0.68163142 0.04453724
0.05382081 0.68263551 0.56281276
0.55276709 0.20460944 0.06218003
0.56314845 0.19038931 0.55420449
0.55563496 0.69965224 0.05866328
0.56356072 0.67402088 0.56831252
0.31320607 0.30600593 0.19643132
0.29859149 0.30034495 0.68211778
0.31907198 0.80287323 0.19963174
0.31096058 0.81228779 0.67381947
0.80844934 0.32465630 0.19144200
0.79972301 0.29016281 0.69000471
0.80547062 0.81140643 0.18807795
0.80970536 0.80153859 0.69395482
0.30508845 0.18666928 0.30985992
0.30884476 0.18739146 0.80285581
0.31414358 0.69549022 0.31410018
0.29423039 0.68634531 0.79577164
0.80815475 0.21184310 0.31203276
0.79620380 0.19293771 0.81478257
0.82010266 0.69130872 0.29580838
0.80615494 0.70633506 0.82187134
0.19571913 0.18838245 0.18544311
0.18528402 0.18628614 0.69507418
0.19256968 0.70023496 0.19987418
0.18818821 0.69150262 0.68119847
0.68464347 0.20762089 0.18869748
0.67999392 0.18311332 0.69738913
0.69142678 0.70340901 0.19201684
0.68831632 0.69260151 0.69726042
0.19473298 0.29953373 0.30940953
0.19276665 0.30488722 0.80649225
0.19738252 0.82543394 0.30802079
0.20570280 0.81610171 0.79495207
0.69466511 0.32143079 0.31061539
0.67655000 0.30645467 0.80544726
0.70107230 0.80464076 0.31423543
0.69119570 0.81435246 0.81036556
0.99587270 0.99216992 0.25305488
0.99927015 0.99976370 0.75250789
0.99421335 0.50494993 0.24658447
0.00966722 0.48875312 0.74084860
0.50069211 0.00753636 0.26126814
0.49646332 0.99430541 0.74803995
0.50684927 0.50898874 0.25021934
0.50434978 0.48759031 0.75181316
0.24057914 0.02036427 0.00147360
0.25704358 0.00011344 0.50227368
0.25557578 0.50233605 0.99781023
0.26020463 0.49421130 0.49611127
0.74863926 0.99178971 0.99527130
0.74814833 0.99844969 0.48308578
0.75305830 0.50471080 0.99820669
0.75681445 0.49613147 0.50213692
0.99791383 0.24691346 0.00322098
0.01089072 0.24723423 0.49900615
0.01308269 0.74629692 0.99451314
0.01079050 0.75120245 0.50133531
0.49347963 0.25731518 0.99369003
0.50720541 0.24824943 0.49390479
0.49275429 0.75241528 0.00363839
0.50959676 0.74502628 0.50826347
0.25187990 0.24279664 0.24749979
0.24465233 0.24209577 0.74859593
0.25698015 0.75522067 0.25688880
0.25327289 0.75246497 0.73204368
0.75237842 0.26468587 0.24637375
0.73702840 0.24833868 0.75100026
0.75651799 0.74835871 0.24959524
0.74676293 0.75278279 0.75728361
Direct configuration=      2
0.11765291 0.00915973 0.40539735
0.15021217 0.09805431 0.75670280
0.23908943 0.59201247 0.36951952
0.12110486 0.72902422 0.86078312
0.65758112 0.00917757 0.36011502
0.59918846 0.00929794 0.88991064
0.63985691 0.50911193 0.37241425
0.62298556 0.51566742 0.88076495
0.26987413 0.37762324 0.36569558
0.34976372 0.38145507 0.77616054
0.41274707 0.87768669 0.49663208
0.37020750 0.00055062 0.85918574
0.88144428 0.39249419 0.49374966
0.76951509 0.38580608 0.83964742
0.89490828 0.98695115 0.36939309
0.85475398 0.98012329 0.86819142
0.33465838 0.01001409 0.13608068
0.40826114 0.14300690 0.72902563
0.33469598 0.65088835 0.01740474
0.37810008 0.50898241 0.62375673
0.87504792 0.09928263 0.01861454
0.84363577 0.00720067 0.64647416
0.75801361 0.61195758 0.12859386
0.75461272 0.65011786 0.60307084
0.13905059 0.49198935 0.13215303
0.14936888 0.48227528 0.65128207
0.13720003 0.89214384 0.23392486
0.16481715 0.97940885 0.65770957
0.60083089 0.49905148 0.10938246
0.64756004 0.50206464 0.65440247
0.60292541 0.88291615 0.01743851
0.64089351 0.98777229 0.62618064
0.41004851 0.07956064 0.01108658
0.27269029 0.16641582 0.60210587
0.35674237 0.74573024 0.09706633
0.39760222 0.60228042 0.52436884
0.87884331 0.23023990 0.13309629
0.86859040 0.13786983 0.50653917
0.84761289 0.65031831 0.99767289
0.87388665 0.69485190 0.53507209
0.38995761 0.45688240 0.44142454
0.47877968 0.35571770 0.84860478
0.34537526 0.76993048 0.40618550
0.42036151 0.90519474 0.97826586
0.98031483 0.37083666 0.39133748
0.88357783 0.25525508 0.87029089
0.97821720 0.86115062 0.31128887
0.75448866 0.84916418 0.90163440
0.13660332 0.35041220 0.02285044
0.25291803 0.38640133 0.63192809
0.13071278 0.98723272 0.13055239
0.11442800 0.90078031 0.50674045
0.58966608 0.39849797 0.00159559
0.61580888 0.37894060 0.51672662
0.72432414 0.84638769 0.10260469
0.59328387 0.90949983 0.52031852
0.14209399 0.13267863 0.48807543
0.08047350 0.01080319 0.89999502
0.11488729 0.60588508 0.48410263
0.03728510 0.61524770 0.79254875
0.63028320 0.10861849 0.48258455
0.60255804 0.11084230 0.97494455
0.60810926 0.60874702 0.49973099
0.73280543 0.59672187 0.84473367
0.02053548 0.37585744 0.12732352
0.11515408 0.38292445 0.51081257
0.00768056 0.88316375 0.14839426
0.00937368 0.88942637 0.61031510
0.50884277 0.38018397 0.14908506
0.51034744 0.39053509 0.62568181
0.60803067 0.76337139 0.12679029
0.53024458 0.85955185 0.64524205
0.37231669 0.45198787 0.29291078
0.37892915 0.25296914 0.87687181
0.50663126 0.85906284 0.35944876
0.49785823 0.86227180 0.86004681
0.88631781 0.48140807 0.38682839
0.85296871 0.35696278 0.99197766
0.83600436 0.87682869 0.26966603
0.89212321 0.87000974 0.98918153
0.02297690 0.10774500 0.40263029
0.00738303 0.15166679 0.83450757
0.13133618 0.51673687 0.36237001
0.04561150 0.60986400 0.95147792
0.52520963 0.11274302 0.38622028
0.52512072 0.15780633 0.84677804
0.50992629 0.60781492 0.39324415
0.63575994 0.64172932 0.99221723
0.49914872 0.11189264 0.10244202
0.34375586 0.02356815 0.64054772
0.48283887 0.64470683 0.14076923
0.49163477 0.65433211 0.65025719
0.99548170 0.10416734 0.12803730
0.98376695 0.11745707 0.61092061
0.90434008 0.51108206 0.10867244
0.84687541 0.51907351 0.63824040
0.11751132 0.27236280 0.16515384
0.16264899 0.25333606 0.59331478
0.09394874 0.89849898 0.01567981
0.10481853 0.76480109 0.65050785
0.64880222 0.27532488 0.10877146
0.62804620 0.27052522 0.62633797
0.61450569 0.88609756 0.24333109
0.64373533 0.77463657 0.60140452
0.37763412 0.23733145 0.11619878
0.37881770 0.12268546 0.49979219
0.37811218 0.67058194 0.23338533
0.36624945 0.73237313 0.59648827
0.87067332 0.08624538 0.23617805
0.88279143 0.24228544 0.62516313
0.98540424 0.63749334 0.12999095
0.97748072 0.60272775 0.60524650
0.48480049 0.35846507 0.35502959
0.35207433 0.35485648 0.99886812
0.40173489 0.86830774 0.26676916
0.39027328 0.75687810 0.85807145
0.81825945 0.40516669 0.28749710
0.98716530 0.39228042 0.89687155
0.90712810 0.74507283 0.33504534
0.85555823 0.75076357 0.87203355
0.11691081 0.23726258 0.34899222
0.12586268 0.12832310 0.98950272
0.02556362 0.59447752 0.38702902
0.10410714 0.50719416 0.88853726
0.62888339 0.23589599 0.37353444
0.63306203 0.23119579 0.88204422
0.64789254 0.73150638 0.39842659
0.63826891 0.73926933 0.89268974
0.39177593 0.28112397 0.30038943
0.25479360 0.35389703 0.88866706
0.38075575 0.98055045 0.40701296
0.37583637 0.86817853 0.76433847
0.76618581 0.33472978 0.41388456
0.87849866 0.47096080 0.90038414
0.76637687 0.85751762 0.39636346
0.98263032 0.86115572 0.86974429
0.37276614 0.11216765 0.22432137
0.48925292 0.09754560 0.59799394
0.39996070 0.51466438 0.08082001
0.36955209 0.61843492 0.75101016
0.83000634 0.01117049 0.12488335
0.86438908 0.11961273 0.72728849
0.85537337 0.58974529 0.24778573
0.85124523 0.59105290 0.75615534
0.15068994 0.09501141 0.27908001
0.15443217 0.22166986 0.89144308
0.10650753 0.63554811 0.24807952
0.19067572 0.64092250 0.96312039
0.60653260 0.16863069 0.26302723
0.65363369 0.09748329 0.77199792
0.61110620 0.64716640 0.25939013
0.51780778 0.59936868 0.90086115
0.10793160 0.35550301 0.24143494
0.02570982 0.34780021 0.64934374
0.15910767 0.77287645 0.08244591
0.09105835 0.86184297 0.73693430
0.61957592 0.38213071 0.25043206
0.63342847 0.38669427 0.73616046
0.49957782 0.86564773 0.14863265
0.65948878 0.88882807 0.74412225
0.37244314 0.28718647 0.45552260
0.38514267 0.48562041 0.90046256
0.28298355 0.89380466 0.33890063
0.26249060 0.86102204 0.88726212
0.88635273 0.27140347 0.32880745
0.89798470 0.36373280 0.77393202
0.93516609 0.87394581 0.47417129
0.85547442 0.87310282 0.77194910
0.24501556 0.39550603 0.16852738
0.13057944 0.36151388 0.73447084
0.24225350 0.88370754 0.13667804
0.22250137 0.80724582 0.62116304
0.73907601 0.40046847 0.13896108
0.72916676 0.34604353 0.60542484
0.62447434 0.99527314 0.14378565
0.74593042 0.87213159 0.59602317
0.25081111 0.15328619 0.10784207
0.38241915 0.25117697 0.62512056
0.26353237 0.62652960 0.16180692
0.25430911 0.64561976 0.59086649
0.77327699 0.14800051 0.09354820
0.76136842 0.13727227 0.60304680
0.87710283 0.73399987 0.16249321
0.90349554 0.72347098 0.68132156
0.24642415 0.14548468 0.38507184
0.22762888 0.10341018 0.86286854
0.15854713 0.74040854 0.40405516
0.20376135 0.62218284 0.78857716
0.74408619 0.11912644 0.35271961
0.73241808 0.15151319 0.91035514
0.75233074 0.61266206 0.34521782
0.59617786 0.66058248 0.78879916
0.97487339 0.99831045 0.00599616
0.98913473 0.99914840 0.48909063
0.00271715 0.48541612 0.98997440
0.99784556 0.51537580 0.48627269
0.52785131 0.00594453 0.01622126
0.48729262 0.99384757 0.50556609
0.51042695 0.50098084 0.98765782
0.50729589 0.51415853 0.49823567
0.01442514 0.26111775 0.25591266
0.98484830 0.24278235 0.73606519
0.99125373 0.75364858 0.23096448
0.02134953 0.75872331 0.75886087
0.51126693 0.28896313 0.24524665
0.46979793 0.24312938 0.76573139
0.50763576 0.76692877 0.24339886
0.47508730 0.75432349 0.75916969
0.23917969 0.99727339 0.23294773
0.26151416 0.00378781 0.74575260
0.25320774 0.51163409 0.25035507
0.25789785 0.49667066 0.73201025
0.75296262 0.98914210 0.25176010
0.75108339 0.00786625 0.75119714
0.73671485 0.51233662 0.24104486
0.74442886 0.49192669 0.75777950
0.24269881 0.24155833 0.99363012
0.25964291 0.24074374 0.49679369
0.25696323 0.76366076 0.99086075
0.26197919 0.73964499 0.50348787
0.75964111 0.25911204 0.00955103
0.76128553 0.24053730 0.51925471
0.73264520 0.75331261 0.99270301
0.74699599 0.74351882 0.49932308
0.13423779 0.12167983 0.37871470
0.11627414 0.12111712 0.87563552
0.12589771 0.63626887 0.37293167
0.11998093 0.61970537 0.86869540
0.63536211 0.13381418 0.37845978
0.63145598 0.12201049 0.87352366
0.62949420 0.62464139 0.37143976
0.62822132 0.62392376 0.87663748
0.37897490 0.36121482 0.36566436
0.36556842 0.37037201 0.88766702
0.38862520 0.86872218 0.38887178
0.38062363 0.88400828 0.87643282
0.85913800 0.36683474 0.38077891
0.86722941 0.36797595 0.88017944
0.87667832 0.86810564 0.36835323
0.86042969 0.86529741 0.87837929
0.37355119 0.12669742 0.11108782
0.38267863 0.13784904 0.61969631
0.35936733 0.63472336 0.12689769
0.37552634 0.61349280 0.63751492
0.87387639 0.11428178 0.12566630
0.87435013 0.11461379 0.62259153
0.87005832 0.62156865 0.12057900
0.86170297 0.63061783 0.62995106
0.13032748 0.37012039 0.13579733
0.14465155 0.36570980 0.61997287
0.13047444 0.87829882 0.12291130
0.12738270 0.87854457 0.61833575
0.61997100 0.39012657 0.11938333
0.62203706 0.37874899 0.62920182
0.62108201 0.88073469 0.13666170
0.64007861 0.87623333 0.61709762
0.05439868 0.43302823 0.31126088
0.05205035 0.41653786 0.79356917
0.06565009 0.94554769 0.32343240
0.05330267 0.93440599 0.82182546
0.55746363 0.45515121 0.31176836
0.55435636 0.44645804 0.81080338
0.56026533 0.95401339 0.30205122
0.55509245 0.93825934 0.79970896
0.43049911 0.06203048 0.30988312
0.45314948 0.07290307 0.81098469
0.43721655 0.55931219 0.30425928
0.43362288 0.55882799 0.82162137
0.96003241 0.07594000 0.31023940
0.93542738 0.05049845 0.82227874
0.94817439 0.55370719 0.30930416
0.94548328 0.52964464 0.81322534
0.43779244 0.46219055 0.18497454
0.42923103 0.43922809 0.69911973
0.44390842 0.95715047 0.18336501
0.42877330 0.95262530 0.69995412
0.94271405 0.43245535 0.18947574
0.93700099 0.43127308 0.67395975
0.94456149 0.94563487 0.21780073
0.93794373 0.91864352 0.71000887
0.07021847 0.05252987 0.19629433
0.04273063 0.04949194 0.69911717
0.05916659 0.54527684 0.18669503
0.04556694 0.54862105 0.68084577
0.55865775 0.07412844 0.20008984
0.55920338 0.05202603 0.68056046
0.55557123 0.57928362 0.19641478
0.54643037 0.56193083 0.70450071
0.31092064 0.05832472 0.44721272
0.30037593 0.06545269 0.93918695
0.31432044 0.54998199 0.43838720
0.29408569 0.55461504 0.94272851
0.81221689 0.05982170 0.42737345
0.79284035 0.04887164 0.95156157
0.80926604 0.55478431 0.44678765
0.81290348 0.55994797 0.93257449
0.30636408 0.43416130 0.07197020
0.31853327 0.44330462 0.54836857
0.30372898 0.93724055 0.04347767
0.31530463 0.93990825 0.55847100
0.82070119 0.45128766 0.05718041
0.79905639 0.44531520 0.57417351
0.79560454 0.92741246 0.05797941
0.82195250 0.94912245 0.55066984
0.19432633 0.43524485 0.44438766
0.18485946 0.43801454 0.95299667
0.20122519 0.93226336 0.45035564
0.17807261 0.93808440 0.93401160
0.69171752 0.43679285 0.45878566
0.69744694 0.44131433 0.94313332
0.69977962 0.93888281 0.44757687
0.67540893 0.93921107 0.94615993
0.18998629 0.05744476 0.05214557
0.19672053 0.05675949 0.56356683
0.19736354 0.55618328 0.07177923
0.19406235 0.55686407 0.55104653
0.69188176 0.06268222 0.07202040
0.70098292 0.06352468 0.55552104
0.68867571 0.56048561 0.05072745
0.68489536 0.55969332 0.55897967
0.44812116 0.32023571 0.05195321
0.44420867 0.31063139 0.54635791
0.43499724 0.81110495 0.05862138
0.46018679 0.80524707 0.57488854
0.94411627 0.30025172 0.05696926
0.95601290 0.31684278 0.55460863
0.94012753 0.79486477 0.06350257
0.93812538 0.79679731 0.56768506
0.07419833 0.30282426 0.43557552
0.04727628 0.29266095 0.93063774
0.06061954 0.80753290 0.45061565
0.05975988 0.80589165 0.93654656
0.55934526 0.30775125 0.44113773
0.56208696 0.30341683 0.93774457
0.57436554 0.79877675 0.45538510
0.55774025 0.79847440 0.94949245
0.46204836 0.17853759 0.45132128
0.44280090 0.18298854 0.95073956
0.44769592 0.69305011 0.46541023
0.43734878 0.68905500 0.94735911
0.94068008 0.20128927 0.43294379
0.94931376 0.17073134 0.94283391
0.94257500 0.68369075 0.43513035
0.94787478 0.68606365 0.92958604
0.06173689 0.19271279 0.06553298
0.05727184 0.19054289 0.55701182
0.07048612 0.67892189 0.04195739
0.05925392 0.67782545 0.54543381
0.56753072 0.19418460 0.05739016
0.56249489 0.18974306 0.56923113
0.54719716 0.69207579 0.05649418
0.56512886 0.68364088 0.57395009
0.31276570 0.30490285 0.19779910
0.30062863 0.30780137 0.69507798
0.30928986 0.80797125 0.20165367
0.31713524 0.80304770 0.68470834
0.81270823 0.31641834 0.19572991
0.80234517 0.31610726 0.70186441
0.79347681 0.81794362 0.18785004
0.79356811 0.81365148 0.68559560
0.31751423 0.19024456 0.31351141
0.29984825 0.18013610 0.80788982
0.28673110 0.70455054 0.32338244
0.30300104 0.68937475 0.81407158
0.81461951 0.18743778 0.29522568
0.80887309 0.17755243 0.80418330
0.81613087 0.68955309 0.28189750
0.80508025 0.68891748 0.79463570
0.19062365 0.18136337 0.19921909
0.18847247 0.18529186 0.68533076
0.19379383 0.71017533 0.19219230
0.19986591 0.69919486 0.68135974
0.69262596 0.20204768 0.19181301
0.69443567 0.18715107 0.68450392
0.68332513 0.69651118 0.18385969
0.68956863 0.68999214 0.69657204
0.19876668 0.30000288 0.31520364
0.18549364 0.29757357 0.81062707
0.18706576 0.82681404 0.31413085
0.19276844 0.81913782 0.79161018
0.70082066 0.30300690 0.31652507
0.68724919 0.30117689 0.80495569
0.69685756 0.80606813 0.31270735
0.68795517 0.80537557 0.81582682
0.01085808 0.00420306 0.26233331
0.99048744 0.99214350 0.75866330
0.99942058 0.49026450 0.24788387
0.99391050 0.48121727 0.73974197
0.49569335 0.01307410 0.24810158
0.49883559 0.00436460 0.74465646
0.50191312 0.50944220 0.24873921
0.48764902 0.50089887 0.75715064
0.24084967 0.99599129 0.98492470
0.25484343 0.99644278 0.50628210
0.24651355 0.49526726 0.00894645
0.25402239 0.49578671 0.49750157
0.73406791 0.99575408 0.01315580
0.76082849 0.00806491 0.49636108
0.75461426 0.50571423 0.99992927
0.74865364 0.50011668 0.50539821
0.99811374 0.23967129 0.00050010
0.00703276 0.25354077 0.49230305
0.99884146 0.74606009 0.99620582
0.99933035 0.74312656 0.49665496
0.50569786 0.24908150 0.00296282
0.51129026 0.24755516 0.50482985
0.49056222 0.75240813 0.00395041
0.51583636 0.74500788 0.51484599
0.25373745 0.24330766 0.25294406
0.24643499 0.24420558 0.74840126
0.24029019 0.76095089 0.25923387
0.25663228 0.75260557 0.75018471
0.75376532 0.25149520 0.24611292
0.75220437 0.24288781 0.75164443
0.74182751 0.75473027 0.24638963
0.74247814 0.75338031 0.74456230
Direct configuration=      3
0.12413488 0.00804480 0.39640855
0.12657173 0.12746058 0.75514011
0.23097632 0.61330035 0.34711364
0.12189407 0.72067126 0.88318195
0.61384501 0.99657929 0.40346541
0.61338823 0.00869785 0.89718964
0.64157388 0.52183204 0.32350855
0.60177740 0.51438072 0.89462834
0.25725177 0.38332685 0.37645333
0.35446363 0.38848347 0.77825552
0.39313851 0.89982447 0.49142938
0.37505124 0.98065456 0.85926954
0.86601616 0.36462261 0.49178644
0.77791411 0.41383886 0.85347589
0.90169604 0.98662953 0.38491122
0.88986939 0.97665732 0.89136690
0.35122838 0.01469249 0.13951665
0.36480777 0.10806470 0.73959301
0.35432164 0.66165698 0.01221539
0.36428749 0.51534977 0.64614318
0.86739702 0.10620411 0.01079584
0.84722979 0.01464080 0.64906275
0.77464011 0.60950108 0.14936545
0.76276433 0.61337847 0.62117995
0.12199887 0.47945392 0.14910118
0.12606065 0.48550888 0.65281287
0.14293254 0.85787956 0.23262923
0.14840014 0.97194233 0.64170259
0.60130882 0.49311772 0.10161546
0.63471939 0.50099981 0.64345696
0.58537024 0.89955988 0.02731709
0.67671947 0.99605864 0.65340177
0.40176632 0.10305735 0.00455665
0.26298945 0.13615468 0.62041292
0.29866070 0.73345299 0.12389957
0.38627559 0.61263270 0.50804978
0.88976908 0.23370493 0.13629118
0.85652827 0.14071578 0.50271504
0.86271489 0.62824635 0.00542663
0.85666319 0.69062783 0.53602629
0.38852429 0.47802555 0.43582151
0.47761469 0.37289999 0.87454688
0.36547729 0.76945602 0.40888580
0.41796967 0.86753295 0.97332598
0.00286120 0.36307034 0.37543418
0.88706349 0.25617091 0.88100385
0.98534974 0.87686343 0.29168048
0.74517137 0.86422363 0.88243484
0.13861174 0.35085211 0.02323203
0.24221286 0.34357476 0.60466828
0.13987892 0.99620510 0.14227484
0.12277286 0.86102489 0.49989838
0.62427082 0.37455938 0.00661872
0.60109273 0.41445515 0.51811670
0.73981003 0.86272704 0.10906938
0.59235631 0.90183027 0.52215081
0.14327986 0.14257323 0.50392688
0.10889133 0.00307262 0.89172132
0.12486428 0.59565086 0.49444435
0.04299277 0.62043239 0.79095353
0.63303907 0.13002783 0.47743560
0.61134714 0.11362973 0.99915096
0.59823335 0.62207685 0.48634413
0.73686833 0.62010896 0.84601548
0.00689821 0.37981336 0.13531065
0.09738132 0.41862790 0.51349965
0.99878621 0.88370175 0.11181223
0.00830277 0.87895107 0.60314477
0.51776967 0.35899744 0.14831484
0.49939989 0.37421529 0.63964759