Li192 P32 S160 I32
1.0
20.433000 0.000000 0.000000
0.000000 20.433000 0.000000
0.000000 0.000000 20.433000
Li I S P
192 32 160 32
Direct configuration=      1
0.11322253 0.00584608 0.39160541
0.14964554 0.10085160 0.76591496
0.24670788 0.61006595 0.35877014
0.10897638 0.73757930 0.85654013
0.64989039 0.01709183 0.35737306
0.60181304 0.00909590 0.89040250
0.61247458 0.51004803 0.38475755
0.61284002 0.51539963 0.88986735
0.26110938 0.36626030 0.38108814
0.36463297 0.38596610 0.76345650
0.40152739 0.89290871 0.48919618
0.35368107 0.98951518 0.86011972
0.90337804 0.39097883 0.48884334
0.76196201 0.39722562 0.84788762
0.89433086 0.98327850 0.39167393
0.85715351 0.98788644 0.85838168
0.35369835 0.00911641 0.13951781
0.36824742 0.11351766 0.73819621
0.35252177 0.63699413 0.01071862
0.35113757 0.51547682 0.65043586
0.88359249 0.11450519 0.01218782
0.86806214 0.01470894 0.63817501
0.76094143 0.61290253 0.14056134
0.76264509 0.63630185 0.61569530
0.10866549 0.48738904 0.09979052
0.11940834 0.48499991 0.61802219
0.11269964 0.85069537 0.23822799
0.14225358 0.98734760 0.63464635
0.60831877 0.49323698 0.11422527
0.64395031 0.48966303 0.65376970
0.61337908 0.89055698 0.01351153
0.63281977 0.98937141 0.62956135
0.37229743 0.12554288 0.01319840
0.26549414 0.14060597 0.61256505
0.35802980 0.73947823 0.10914072
0.39629994 0.60477039 0.51738336
0.89782759 0.23416935 0.14752208
0.87141800 0.12416632 0.51290581
0.85526511 0.66731937 0.01883098
0.86233638 0.64052485 0.51381296
0.38777661 0.45434867 0.45682425
0.48791553 0.36133548 0.86200108
0.35259351 0.76600680 0.40251325
0.39941280 0.90084157 0.98317696
0.99084755 0.36251138 0.35394709
0.85369491 0.26052321 0.89211257
0.98764109 0.84986131 0.35556152
0.76512832 0.84786212 0.90118639
0.15047746 0.34491912 0.01667442
0.24176012 0.36805744 0.61368382
0.13368556 0.98602262 0.13987927
0.10876506 0.89012027 0.50948613
0.60819473 0.39366231 0.00965766
0.61878241 0.39592698 0.51518234
0.73369397 0.84405178 0.10264258
0.59833629 0.89955070 0.51466056
0.13709660 0.13492587 0.48695842
0.10192767 0.01843336 0.89831096
0.10807291 0.60073889 0.48253483
0.04203048 0.62600652 0.78785933
0.64210020 0.14387692 0.48884026
0.60454704 0.11010497 0.99073426
0.61177199 0.60578983 0.49133832
0.73657110 0.61351912 0.86033585
0.00740126 0.38491775 0.11150164
0.10277590 0.39103008 0.50944093
0.01075479 0.86259596 0.13344211
0.01337469 0.87723241 0.62499365
0.51021581 0.35796187 0.14280930
0.51235936 0.40008357 0.60862196
0.59816062 0.76809138 0.14943101
0.51872314 0.85256077 0.65621090
0.36678320 0.45854222 0.29676586
0.38690783 0.26089205 0.85993338
0.49590843 0.85173969 0.36129318
0.48080836 0.85398378 0.84813974
0.89736857 0.49255722 0.38804660
0.84548805 0.35870741 0.99139970
0.84965170 0.89538909 0.26704390
0.89226999 0.89066741 0.98856675
0.01161448 0.10703229 0.39068135
0.01091048 0.13806234 0.86022684
0.14336473 0.51172512 0.35655461
0.03406222 0.61478406 0.94886627
0.51753946 0.10611656 0.39848000
0.51295874 0.14880106 0.85168193
0.51144242 0.64088609 0.36642784
0.64944746 0.65477352 0.98814410
0.48771663 0.10236556 0.11215855
0.35651923 0.01098975 0.63699268
0.48868148 0.61965959 0.10655313
0.48799206 0.63769513 0.63749769
0.98663445 0.09640304 0.10853794
0.98867803 0.14250233 0.63893174
0.89922158 0.52020151 0.08759196
0.86219012 0.50614399 0.63602750
0.10420657 0.26053958 0.14234351
0.14128655 0.25854122 0.60661496
0.10319386 0.89678227 0.01438659
0.10883372 0.75878801 0.64306463
0.64709728 0.26840019 0.10079080
0.64703743 0.26635689 0.60267644
0.64154997 0.88745533 0.24256447
0.63785412 0.76172854 0.61486390
0.39107319 0.23456680 0.14189600
0.36968604 0.13321835 0.51036209
0.39975648 0.64439670 0.23558131
0.36477850 0.73930873 0.60521824
0.85478886 0.10574168 0.23927883
0.84835961 0.23923060 0.60266937
0.99030992 0.64403993 0.13228013
0.98743307 0.59690593 0.60500000
0.48944483 0.36171227 0.36407595
0.34995752 0.34887388 0.98876973
0.39817773 0.85300751 0.26344463
0.35923626 0.76252621 0.89003412
0.85431396 0.39909151 0.26447815
0.98570298 0.38795156 0.89997438
0.86265706 0.75670380 0.38949738
0.89976461 0.76388850 0.85236503
0.10201234 0.23038197 0.35019452
0.13366213 0.14405193 0.99002119
0.02018353 0.65125694 0.35634176
0.12511324 0.50795969 0.87356674
0.61446793 0.24304042 0.36531385
0.64405739 0.23658605 0.89758707
0.65244913 0.73189142 0.40433799
0.61347444 0.74364183 0.86619480
0.37842293 0.29248655 0.29389737
0.26215788 0.39414908 0.86203989
0.40015287 0.98833878 0.38473416
0.35116798 0.88828313 0.75984215
0.76937021 0.35233860 0.40177298
0.87742532 0.48896669 0.88327145
0.76288185 0.86294257 0.39683833
0.98832005 0.88821617 0.87866633
0.35502917 0.10782585 0.24053271
0.48922058 0.09926722 0.60247970
0.39170530 0.51081360 0.10646470
0.39184118 0.64787968 0.74223576
0.85310055 0.00763679 0.13764862
0.89011369 0.14895439 0.73979681
0.86815397 0.56095003 0.22048164
0.86002549 0.60606343 0.73953070
0.14681917 0.09704145 0.26362834
0.10582664 0.24121561 0.85136061
0.12244452 0.63795364 0.25813100
0.17957976 0.64128638 0.97036769
0.60973697 0.14320407 0.26056950
0.63950436 0.10953651 0.76425952
0.61150377 0.64370872 0.26574617
0.51151394 0.61457123 0.89808187
0.10954764 0.36669082 0.23797441
0.01654801 0.34686698 0.64747498
0.15003949 0.76228049 0.09741902
0.13869837 0.88495669 0.73753929
0.61813601 0.36731394 0.23734613
0.59774255 0.34790687 0.73673164
0.51300991 0.89963843 0.11452658
0.65368940 0.89581935 0.73687717
0.37192861 0.29483654 0.46253840
0.39647069 0.48476056 0.90152298
0.27125762 0.90014488 0.34907574
0.25771295 0.85973254 0.89943583
0.89334221 0.26452620 0.35553081
0.89839897 0.34792959 0.76915085
0.89795929 0.88532829 0.48935996
0.85818051 0.88586501 0.76005714
0.23417666 0.39675048 0.15048657
0.14464604 0.38945571 0.73526047
0.23886764 0.88851132 0.13987114
0.23719305 0.85085829 0.59645121
0.73555918 0.40060015 0.14290096
0.74066307 0.38906373 0.64401994
0.65317612 0.98866124 0.14434732
0.74197511 0.85853535 0.60004470
0.26094130 0.14614966 0.10864840
0.40437502 0.23579323 0.64812903
0.26590551 0.60003810 0.15062246
0.26056395 0.64382288 0.60745982
0.76423053 0.14767326 0.10280065
0.76256894 0.11079046 0.64683913
0.87961571 0.71550917 0.20091937
0.90163146 0.73137049 0.65010670
0.23892672 0.13891113 0.38892250
0.23625651 0.14887599 0.89271990
0.15810807 0.73488867 0.40357967
0.21147521 0.61435428 0.79842357
0.74229630 0.14486595 0.38623651
0.73547283 0.12224897 0.88435204
0.73835600 0.59903828 0.35413660
0.60491015 0.64205147 0.76489238
0.99812124 0.99512719 0.99847409
0.00209737 0.99138983 0.48908098
0.00193668 0.49083690 0.00094121
0.00584066 0.49629952 0.50298265
0.50668234 0.99947931 0.00607684
0.49812735 0.00263334 0.49693660
0.50478469 0.50633474 0.00073223
0.51031411 0.50036337 0.50177465
0.00207468 0.26218099 0.25219803
0.99731030 0.24307991 0.75151198
0.00915488 0.74712366 0.24757195
0.00352160 0.75300607 0.74954876
0.50796884 0.26156492 0.25239693
0.49184631 0.25528250 0.76113077
0.50188715 0.74651882 0.25812911
0.50388592 0.74431104 0.75140113
0.25072038 0.99865147 0.24076372
0.25672763 0.00153044 0.74295982
0.24520088 0.50268994 0.25283579
0.24893087 0.48631686 0.75133118
0.75078840 0.99764122 0.24809788
0.75263950 0.00214586 0.74368220
0.75109768 0.50221279 0.24612774
0.75781126 0.49971442 0.74524585
0.24833613 0.24023646 0.00242236
0.24965859 0.23651432 0.50210856
0.25867595 0.74948822 0.00036933
0.25757873 0.74558155 0.50647167
0.74930318 0.24517333 0.99682752
0.74999650 0.24243474 0.49830038
0.74685933 0.75261109 0.99921639
0.75569699 0.74843681 0.50135108
0.12547854 0.11966906 0.37465691
0.12395245 0.12919667 0.87556418
0.13231559 0.62559353 0.37230620
0.12150102 0.62283794 0.87238661
0.62849592 0.12961346 0.37448307
0.62231025 0.12313488 0.87735090
0.62592784 0.62306073 0.37799981
0.62398113 0.62930544 0.87749490
0.37514579 0.37276383 0.37631178
0.37444253 0.37382953 0.87805914
0.38272134 0.87486923 0.37580867
0.36978256 0.87615010 0.87340455
0.87982159 0.37819381 0.37584942
0.87182104 0.37390900 0.87911836
0.87579168 0.87038038 0.37726467
0.87478175 0.87552390 0.87358550
0.37396128 0.12218086 0.12743508
0.37859883 0.12418355 0.62460708
0.37548376 0.62499825 0.12324323
0.37438519 0.62685928 0.62875917
0.87468111 0.12095317 0.12635154
0.87458858 0.12871612 0.62728272
0.87596575 0.62631411 0.12646779
0.87609474 0.62082798 0.62629018
0.12222059 0.37403462 0.12523143
0.12706966 0.37091926 0.62181949
0.12545489 0.87240189 0.12546526
0.12667206 0.87354248 0.62337260
0.62312899 0.37933393 0.12308661
0.62614677 0.37781370 0.62839282
0.62527482 0.87782952 0.12845544
0.62923051 0.87549010 0.62484256
0.05831417 0.44661087 0.30623971
0.05619184 0.43201725 0.80819798
0.05785472 0.93678072 0.30680423
0.06253375 0.94688786 0.80771465
0.55875357 0.44360512 0.30578794
0.55932741 0.44256007 0.80896282
0.56072309 0.94484820 0.31249682
0.55899748 0.93682031 0.80485791
0.44768329 0.06493313 0.30818599
0.44395803 0.05495692 0.81123404
0.44087822 0.55720023 0.31099392
0.44174710 0.55895207 0.81323422
0.94046432 0.05410769 0.30905632
0.94146420 0.05880890 0.80606454
0.94784314 0.56633595 0.30645171
0.94525955 0.55313277 0.80809329
0.43982459 0.44414614 0.19502035
0.44111238 0.44500313 0.69434756
0.44190276 0.94466215 0.19726044
0.44074708 0.94005241 0.69230893
0.93885342 0.45266890 0.19045133
0.94134359 0.43227297 0.69201866
0.93860812 0.93874822 0.19315515
0.94342277 0.94185071 0.69351705
0.05620527 0.05580900 0.19472739
0.06039448 0.05919408 0.69065042
0.06186151 0.56080689 0.18723490
0.05753494 0.55123326 0.69436025
0.56317811 0.05653296 0.19256077
0.55735514 0.05729940 0.69326046
0.55583083 0.56436245 0.19293217
0.55683299 0.55959346 0.69492260
0.31178361 0.05498445 0.43756571
0.30396835 0.06037365 0.94181542
0.31398079 0.55331192 0.44236725
0.30451000 0.55373290 0.93934666
0.80882855 0.05647002 0.43768145
0.81005867 0.05427362 0.94321193
0.81145891 0.55780002 0.44341258
0.80876032 0.56559922 0.94516437
0.30733557 0.43813886 0.06077914
0.31384183 0.44277670 0.55662996
0.30621958 0.94097706 0.05393207
0.31103143 0.93874967 0.55522593
0.80714174 0.44824257 0.05939152
0.81097650 0.43576243 0.55530067
0.80350856 0.93619629 0.05734237
0.81300719 0.94390981 0.55631950
0.19258627 0.44174396 0.44360261
0.19004555 0.43698836 0.94724105
0.19710341 0.93726731 0.43950034
0.18698035 0.94540015 0.94223463
0.69644054 0.44192167 0.43899041
0.69451230 0.44559719 0.94026036
0.69059672 0.94327909 0.44527448
0.69152131 0.94169185 0.93851438
0.18964544 0.05929359 0.06015456
0.19648198 0.05623455 0.55472687
0.19485773 0.55864944 0.05851249
0.19330069 0.55757553 0.55805281
0.69288610 0.05849601 0.05668987
0.69638888 0.06090427 0.55836575
0.68909343 0.56242458 0.05697644
0.69546636 0.55324715 0.56048921
0.43968836 0.30718007 0.05914065
0.44403190 0.30965402 0.55913420
0.44076509 0.81471629 0.05984735
0.45058089 0.81087163 0.56294088
0.93599277 0.30585411 0.05701810
0.94370996 0.30449120 0.55912128
0.94217026 0.80314932 0.05792253
0.94583244 0.80218920 0.56007931
0.05779922 0.30473236 0.43861278
0.05848880 0.30462186 0.94558746
0.06164735 0.80205702 0.44133762
0.05922735 0.81229553 0.93899275
0.56380819 0.31115775 0.44785030
0.55797033 0.30693577 0.94434901
0.56509161 0.80545992 0.44585274
0.55191688 0.81550410 0.94005876
0.44620733 0.19751269 0.44224659
0.44308381 0.19044213 0.94315474
0.44245972 0.69400440 0.44785930
0.43952633 0.69549239 0.94591855
0.94058350 0.19064324 0.43962473
0.93971156 0.19094278 0.94044452
0.94568267 0.68742767 0.44230009
0.94475118 0.69297476 0.93802875
0.05076991 0.18916007 0.06197765
0.05800471 0.18912093 0.55518086
0.06378850 0.68981084 0.04674464
0.06100227 0.68535984 0.55839171
0.55684555 0.19294339 0.06300593
0.56056668 0.19207520 0.56257411
0.55952354 0.70039624 0.05741174
0.56150420 0.68957183 0.56066316
0.30588438 0.30652304 0.19414968
0.31039912 0.30484956 0.68988913
0.31248316 0.81104251 0.19337245
0.30648598 0.80626084 0.68790431
0.80998662 0.31271615 0.18928462
0.80896729 0.30590657 0.69607167
0.80512272 0.80930935 0.19534330
0.80993665 0.80454592 0.68754692
0.30736599 0.19408865 0.30823819
0.30784899 0.18944517 0.80695906
0.31473915 0.69408502 0.30810113
0.30552408 0.69155039 0.80961626
0.81162614 0.19579639 0.30395399
0.80289494 0.18910378 0.81033292
0.80896657 0.68882960 0.30366602
0.81135279 0.69245401 0.80762624
0.18717573 0.18863606 0.19356094
0.19111681 0.19041394 0.69266379
0.19895320 0.69494216 0.18928632
0.19071225 0.68768994 0.69728464
0.69284725 0.19767423 0.18973602
0.68849770 0.19358547 0.69192299
0.68823270 0.69618301 0.19294711
0.69201656 0.69028056 0.69437610
0.18735357 0.30576486 0.30787671
0.19481538 0.30764748 0.80760994
0.19787979 0.80790187 0.31133816
0.19384088 0.80923428 0.80826206
0.69715906 0.31246214 0.30909220
0.68920799 0.30827213 0.80898105
0.69124778 0.80602711 0.31595412
0.69669253 0.80961082 0.80732512
0.99825436 0.99552544 0.25091312
0.00211776 0.00209330 0.74929540
0.00288294 0.50636047 0.24742399
0.99890373 0.49089641 0.74963415
0.50344339 0.00212679 0.25265963
0.49962867 0.99721837 0.75026579
0.49959996 0.50327186 0.24999166
0.49915434 0.50172570 0.75398124
0.24646722 0.00190852 0.00034323
0.25424776 0.99724006 0.49668379
0.25080611 0.49702299 0.00142483
0.25229661 0.49967313 0.50081212
0.74864743 0.99731264 0.99948475
0.75224915 0.00101777 0.49976996
0.74941076 0.50571846 0.99991295
0.75385802 0.49764583 0.49998690
0.99645618 0.24814672 0.00080478
0.99964738 0.24790092 0.49770455
0.00150123 0.75242923 0.99642311
0.00413182 0.74492690 0.50095257
0.49926894 0.24917630 0.00241655
0.50458776 0.25141383 0.50384587
0.49781813 0.75641539 0.00113555
0.50440362 0.75008274 0.50369667
0.24588509 0.24802240 0.24944944
0.25107760 0.24883123 0.74862980
0.25518496 0.75140280 0.25092302
0.25016173 0.74971922 0.74914392
0.75213611 0.25481314 0.24753560
0.74700799 0.24933321 0.75179930
0.74762205 0.75087587 0.25327220
0.75240429 0.74939285 0.74925332
Direct configuration=      2
0.11428748 0.00858696 0.39532957
0.12981443 0.11379668 0.75832406
0.24428957 0.60923244 0.35497373
0.11934601 0.73686356 0.87324776
0.63203688 0.01195196 0.37032792
0.60291894 0.01227672 0.88953901
0.64764086 0.51058180 0.34857357
0.61100661 0.51277031 0.89349203
0.26063212 0.38394968 0.36124094
0.36044638 0.38431320 0.76481111
0.39825160 0.89235482 0.49181839
0.36270216 0.98775398 0.86036178
0.89665631 0.39496151 0.48883598
0.76411085 0.39828714 0.85063169
0.89344310 0.98573122 0.39254765
0.85287419 0.98857750 0.85404041
0.35307629 0.00898111 0.13787417
0.39308840 0.13461475 0.73740734
0.35399939 0.63937254 0.01126287
0.35111836 0.51278199 0.64706765
0.88587231 0.11308620 0.01251424
0.84748500 0.01661290 0.64473136
0.75959155 0.60650874 0.14308297
0.75962359 0.63981604 0.61456868
0.11130284 0.48772775 0.10600873
0.14071674 0.48685131 0.64450280
0.13855979 0.88563163 0.23979221
0.14935217 0.98293627 0.64678558
0.60675662 0.48999862 0.11388208
0.64893064 0.48627060 0.65236560
0.60100850 0.89846804 0.01827710
0.63897883 0.98731536 0.63501266
0.39139862 0.10532473 0.01091460
0.26620333 0.13871934 0.61336119
0.35779725 0.74033499 0.10825227
0.39061468 0.60716067 0.51593949
0.90013259 0.23643152 0.14831452
0.85546547 0.14724621 0.50756347
0.85053252 0.65129811 0.01452432
0.86085005 0.64532788 0.51434209
0.38510155 0.45466648 0.45330661
0.48228570 0.34896222 0.85401806
0.35041214 0.76404086 0.40365975
0.40358849 0.89731567 0.98171036
0.99284429 0.37672991 0.37329553
0.88371499 0.26001275 0.86311425
0.99218257 0.85793372 0.36093026
0.75934320 0.85990220 0.89772109
0.15112428 0.34582341 0.01693593
0.24131588 0.37027445 0.61845487
0.11140479 0.98748059 0.11600954
0.10814254 0.89138611 0.51340580
0.61068255 0.38693420 0.01009887
0.61109911 0.39380510 0.51193420
0.73551185 0.84762908 0.10014543
0.59810804 0.89940776 0.51480066
0.13754791 0.13823925 0.48988829
0.10253214 0.00805320 0.88905457
0.12461898 0.61364066 0.48856117
0.04071218 0.63009001 0.79265779
0.64532731 0.13979769 0.48824855
0.60726683 0.11106522 0.99070157
0.61110580 0.59947233 0.49046459
0.73362700 0.60078327 0.85065444
0.01034779 0.38390245 0.10775826
0.10066303 0.39992285 0.51439036
0.01424136 0.85201462 0.14875012
0.00998069 0.88130348 0.62243567
0.51088218 0.35646726 0.13850580
0.50782494 0.40030985 0.61075446
0.60974796 0.76347778 0.14113140
0.51677637 0.85050454 0.65353896
0.37212236 0.45695108 0.28965697
0.35681041 0.25656312 0.88669127
0.49136498 0.84785599 0.35928162
0.48802356 0.85754801 0.84826826
0.88281144 0.49125219 0.37913973
0.84483948 0.34750154 0.98709212
0.85353156 0.89829301 0.26722135
0.90011613 0.90179806 0.98539989
0.01282161 0.11197471 0.38873652
0.01412585 0.14563062 0.85335394
0.14258850 0.51183014 0.35677028
0.03939847 0.62085376 0.96008566
0.51546241 0.11031404 0.39710356
0.51705307 0.14945130 0.85035846
0.51060557 0.60448058 0.39038476
0.64940459 0.64385944 0.99017193
0.48987629 0.10193005 0.11469081
0.35555690 0.01344648 0.64436318
0.48936468 0.61609579 0.10445628
0.48730283 0.62792549 0.63317660
0.98864565 0.10439563 0.11646790
0.98295637 0.09833961 0.59823307
0.89677459 0.51780447 0.09927351
0.85042122 0.50629130 0.64029250
0.10766161 0.25866226 0.14181481
0.14056122 0.26091066 0.60633443
0.10814411 0.89000929 0.01319594
0.10445010 0.75676234 0.64110314
0.64786011 0.26543275 0.10155215
0.59441881 0.26270818 0.64564478
0.63372878 0.87714476 0.24385269
0.64048572 0.75974224 0.60821825
0.39704619 0.23248367 0.14301937
0.36919401 0.13348825 0.51036566
0.40227163 0.64994426 0.23480476
0.36423453 0.73729871 0.60931478
0.85925865 0.11088124 0.23906334
0.89071443 0.24016200 0.63788484
0.98676760 0.64249425 0.14101126
0.98277975 0.59016134 0.60385926
0.48953312 0.36094905 0.35958378
0.34940336 0.35277370 0.99138713
0.38731642 0.86395555 0.26389077
0.38401257 0.75999860 0.85927909
0.85648753 0.39795476 0.26250334
0.98849325 0.37941258 0.89125249
0.89375635 0.75889130 0.35397629
0.86077388 0.76123972 0.88821187
0.10339798 0.23261539 0.35243520
0.11242322 0.10943625 0.98800435
0.01681987 0.60546259 0.39163234
0.11032849 0.50818768 0.88808847
0.64606455 0.23972369 0.38867994
0.64126810 0.23850208 0.89617063
0.64543724 0.73117336 0.40545032
0.63762491 0.74056326 0.88996291
0.37768222 0.28935830 0.29442513
0.25864193 0.38948802 0.86454661
0.39807141 0.98790437 0.38731835
0.35067655 0.89003656 0.75906042
0.76889863 0.35249869 0.40043766
0.89124753 0.48743388 0.89782728
0.76670334 0.85361604 0.40000909
0.98223281 0.85367176 0.85122163
0.35559719 0.10637570 0.23880551
0.48983324 0.09663852 0.60025153
0.39145084 0.51247476 0.10520405
0.38905131 0.64517369 0.74151662
0.85316358 0.01036992 0.13989753
0.88913427 0.13968453 0.73496375
0.85968794 0.60534279 0.23756357
0.85917125 0.60532314 0.74075578
0.15238394 0.09733986 0.26551973
0.15100063 0.22994819 0.89593276
0.10275866 0.65230669 0.26489795
0.20545884 0.62920074 0.95624948
0.60140746 0.15104824 0.26368298
0.65047392 0.10362337 0.76624255
0.60196942 0.65253816 0.26864829
0.51145075 0.61433808 0.89921000
0.10430608 0.36182141 0.23738486
0.01534709 0.35294462 0.64741883
0.15072470 0.76152510 0.10325500
0.11992710 0.86673698 0.73953362
0.61271207 0.36005095 0.23731135
0.61808861 0.37127462 0.74129980
0.51241145 0.86729805 0.14194983
0.65221941 0.89023961 0.73647913
0.36710214 0.29597441 0.45750044
0.39710334 0.48244869 0.90160357
0.26888304 0.89850971 0.35609848
0.26524191 0.85127372 0.90157286
0.89946804 0.26576714 0.35057813
0.88623815 0.36495753 0.76305841
0.89646153 0.88300742 0.49034875
0.85450282 0.88043974 0.76068985
0.23530598 0.39276773 0.15215837
0.13986569 0.38024677 0.73928465
0.23895039 0.89042242 0.13378276
0.23494486 0.84851763 0.59960212
0.73665604 0.40006675 0.14373478
0.73060504 0.34593863 0.60289114
0.65326751 0.98848132 0.14855479
0.74014328 0.85818018 0.59951429
0.26548706 0.15083662 0.09777567
0.40053795 0.23815451 0.63925534
0.26526989 0.60137888 0.15222911
0.25935313 0.64243728 0.60926269
0.76528805 0.14970104 0.10400013
0.75959427 0.14467211 0.61572397
0.88480148 0.74170242 0.14626197
0.90041994 0.72968233 0.65284348
0.23980674 0.14100489 0.39272046
0.23692470 0.09874894 0.85556881
0.15314260 0.73608446 0.40079898
0.20378029 0.61076351 0.79417079
0.74011722 0.10934553 0.35120464
0.73925876 0.13804980 0.89710025
0.73903590 0.61722715 0.37134130
0.59757741 0.64760268 0.76888108
0.01173308 0.00297345 0.00698413
0.00172683 0.99343546 0.49409101
0.00081874 0.49255468 0.99865555
0.99999185 0.49919102 0.49097652
0.50452007 0.00545994 0.00136852
0.49839543 0.00170680 0.49367314
0.50377940 0.50701402 0.00342107
0.50290719 0.50500260 0.50280667
0.00410044 0.25824610 0.25090508
0.98129190 0.25014389 0.75070126
0.99434791 0.74994367 0.24710450
0.00500944 0.75648486 0.74916199
0.50394594 0.26114208 0.24613388
0.49447325 0.24988011 0.74971521
0.50263373 0.75824074 0.24509537
0.49199306 0.74497274 0.75294174
0.25283411 0.99332949 0.24535733
0.25510438 0.00078379 0.74867698
0.24640097 0.49760577 0.25513657
0.24573798 0.48301789 0.74729007
0.75665015 0.00343232 0.25070033
0.75019044 0.99537844 0.74589898
0.75723486 0.50477694 0.25035065
0.75447209 0.50023728 0.75051503
0.25175898 0.24855886 0.99425091
0.24946089 0.23362733 0.50462873
0.25400850 0.74782839 0.00423374
0.25415719 0.74272814 0.50732867
0.74542437 0.24326041 0.99816579
0.74637190 0.24487648 0.49949790
0.74810419 0.75105069 0.99232989
0.74747465 0.74490911 0.50651084
0.12679676 0.12151672 0.37664449
0.12461481 0.11986785 0.87278409
0.13030279 0.62493960 0.37474595
0.12138111 0.62212637 0.87675662
0.62805458 0.12672435 0.37441595
0.62650935 0.12482562 0.87768921
0.62459036 0.62083972 0.37757505
0.62417077 0.62623714 0.87907711
0.37500870 0.37416771 0.37177382
0.37139342 0.37157199 0.87868921
0.38002797 0.87397898 0.37827789
0.37542605 0.87420531 0.87125284
0.87885199 0.37702694 0.37516272
0.87422075 0.37423339 0.87759985
0.87876994 0.87164974 0.37719795
0.87146318 0.87580325 0.87479188
0.37553108 0.12089340 0.12484670
0.38005782 0.12471718 0.62412200
0.37581443 0.62602703 0.12380922
0.37271510 0.62452843 0.62855946
0.87603435 0.12370089 0.12621361
0.87295393 0.12736629 0.62106413
0.87275775 0.62822145 0.12559351
0.87268213 0.61988239 0.62691569
0.12359964 0.37316387 0.12537554
0.12658995 0.37361548 0.62497398
0.12589359 0.87345357 0.12602411
0.12406912 0.87140352 0.62563091
0.62439234 0.37687610 0.12377473
0.62019050 0.37592215 0.62654679
0.62673925 0.87655363 0.12935611
0.62759005 0.87348215 0.62449043
0.05916750 0.44595295 0.30530605
0.05608590 0.43474020 0.80715405
0.05927816 0.94098121 0.31027999
0.05360236 0.93999680 0.80562737
0.55996040 0.44457294 0.30477795
0.55357631 0.44067147 0.81471399
0.55711262 0.94094545 0.31122829
0.56255156 0.93916655 0.80378239
0.44609116 0.06341177 0.30834999
0.44739972 0.05642282 0.80950748
0.44080703 0.55742344 0.30552407
0.43998171 0.55898300 0.81501988
0.94172274 0.05684927 0.30991075
0.94116369 0.05879985 0.80700292
0.94543878 0.56233526 0.30570663
0.94454060 0.55466098 0.81031140
0.44410146 0.44499178 0.19000950
0.43864000 0.44429058 0.69719899
0.44184288 0.94619857 0.19400934
0.44299081 0.94131177 0.69139967
0.94231061 0.44649778 0.18847752
0.94145256 0.43969169 0.68878705
0.94252386 0.94182468 0.19313867
0.93463304 0.94280940 0.69137239
0.06057983 0.05763170 0.19728536
0.05512303 0.05372708 0.68711409
0.06073827 0.56158867 0.18934176
0.05711250 0.55654964 0.69566954
0.56431705 0.05737218 0.19581976
0.56080268 0.05846904 0.69193169
0.55989754 0.56573223 0.19206551
0.55787306 0.55700022 0.69889569
0.30980822 0.05405902 0.44117752
0.30816127 0.05694930 0.94056594
0.31085795 0.55338513 0.44154478
0.30515928 0.55338582 0.94225466
0.80870216 0.05820823 0.43888946
0.80944575 0.05448592 0.94311841
0.80994451 0.55732939 0.44679366
0.80652320 0.56077248 0.94244916
0.30689955 0.43872381 0.06340729
0.31367584 0.43982486 0.55428599
0.31099071 0.93810877 0.05203828
0.30948901 0.93927784 0.56062920
0.80998748 0.44269341 0.05706910
0.80574599 0.43378744 0.55721690
0.80663873 0.93789792 0.05688548
0.81281078 0.94276059 0.55589392
0.19125363 0.44076787 0.44323372
0.18924327 0.43812260 0.94863060
0.19547022 0.93679900 0.44400664
0.19128057 0.94086047 0.94038162
0.69368847 0.44127574 0.43928276
0.69366015 0.44138262 0.94115451
0.69320378 0.93988499 0.44418053
0.68757753 0.94322579 0.94456010
0.19540967 0.05603523 0.05925226
0.19367400 0.05497061 0.55907440
0.19412461 0.55980149 0.05889679
0.19426836 0.55405077 0.56157551
0.69432475 0.05942879 0.06030077
0.69569001 0.05793424 0.55835032
0.69127743 0.55633374 0.05917010
0.69335839 0.55279837 0.56162778
0.43854146 0.30555210 0.05742790
0.44369839 0.31108904 0.55363882
0.44294516 0.81302221 0.05909723
0.44689313 0.80733642 0.56176298
0.93981104 0.30401683 0.05523851
0.94544574 0.31034477 0.55733374
0.93933066 0.81299649 0.06077330
0.94355242 0.80064435 0.56144616
0.06342798 0.30649148 0.44283399
0.06207507 0.30164480 0.94345051
0.06115691 0.80321908 0.44532840
0.05293183 0.81223614 0.94203822
0.56281745 0.30868869 0.44180607
0.55499808 0.30673320 0.94185048
0.56149238 0.80571187 0.44591564
0.55564870 0.81421358 0.94068474
0.44233117 0.19797967 0.43848615
0.44302280 0.18845618 0.94091270
0.44226830 0.69143278 0.44402045
0.43962429 0.69596775 0.94462844
0.94296163 0.19469342 0.43932561
0.94353334 0.18793246 0.94028167
0.94384644 0.68915925 0.44036209
0.94146167 0.69327643 0.94483139
0.05659176 0.18787364 0.06022267
0.05526736 0.18984418 0.55915664
0.05683540 0.69505445 0.05693459
0.05599314 0.68258956 0.55941375
0.55614091 0.19276248 0.06162903
0.55819101 0.18998439 0.55695425
0.56058617 0.69690700 0.05537231
0.55951183 0.68728564 0.55904050
0.30873187 0.30390070 0.19297923
0.30931479 0.30325831 0.69110024
0.30848369 0.81029335 0.19210906
0.30503817 0.80418492 0.69040288
0.81022027 0.31126289 0.18918910
0.80411723 0.30806852 0.69212514
0.80306017 0.81163948 0.19663813
0.80617073 0.80088955 0.68766054
0.30726826 0.19143313 0.30760980
0.30712676 0.18475914 0.80567746
0.31413566 0.69457296 0.30819875
0.30156752 0.68724910 0.81059792
0.81130667 0.19620825 0.30700477
0.80390780 0.18890583 0.80693826
0.80884334 0.68979417 0.30803155
0.80687674 0.68883865 0.80824203
0.19104242 0.18579334 0.18976204
0.19062836 0.18985679 0.69021813
0.19440330 0.69221708 0.19489659
0.18744514 0.68751081 0.69744803
0.69303740 0.19561410 0.19229565
0.68526178 0.19457093 0.69382427
0.68982360 0.69233628 0.19529195
0.68675798 0.68877997 0.69561909
0.18839217 0.30441944 0.30449641
0.19351531 0.30205982 0.80947375
0.19650881 0.80869730 0.31252861
0.19376487 0.80832965 0.81084533
0.69718545 0.31303044 0.30831494
0.69166914 0.30889493 0.81151394
0.69191411 0.80346589 0.31707584
0.69407092 0.80731546 0.80870290
0.00039500 0.99876946 0.25222436
0.99618586 0.99899945 0.74773552
0.00150921 0.50359509 0.24616502
0.99876456 0.49522806 0.75005288
0.50231610 0.00177679 0.25227468
0.50276854 0.99858055 0.74839975
0.50241548 0.50383897 0.24680384
0.49734687 0.50093335 0.75651504
0.25029498 0.99799993 0.99826453
0.25252817 0.99710123 0.50135886
0.24993777 0.49675942 0.00421459
0.25147515 0.49781471 0.50035642
0.74877429 0.99892235 0.00147763
0.75278606 0.99993401 0.49878878
0.75054711 0.50025459 0.99995181
0.75073808 0.49641977 0.50105242
0.00051474 0.24588006 0.99991996
0.00173002 0.25053767 0.49911872
0.99652301 0.75442207 0.00272695
0.00183441 0.74430494 0.50138576
0.49799935 0.24783828 0.00054580
0.50303152 0.25081373 0.49888479
0.49978505 0.75502880 0.99984835
0.50190309 0.74745754 0.50240997
0.24739544 0.24584662 0.24725985
0.25065586 0.24546985 0.74899826
0.25276970 0.75114595 0.25183235
0.24769886 0.74768048 0.75083458
0.75265639 0.25387179 0.24843510
0.74674541 0.25011493 0.75104005
0.74848335 0.74945626 0.25382622
0.74863796 0.74648867 0.74990529
Direct configuration=      3
0.11267943 0.01001055 0.39357668
0.10431217 0.14266543 0.75657819
0.24191953 0.61400315 0.36425173
0.11600746 0.73848804 0.87027767
0.60951272 0.01197048 0.37976757
0.60492337 0.01357228 0.89113695
0.64758304 0.51440738 0.35001181
0.61349500 0.51220826 0.88832476
0.25940177 0.36515483 0.38022758
0.36250202 0.38423607 0.76281859
0.39627442 0.89101887 0.49109290
0.36668163 0.98801354 0.86230989
0.85364251 0.34709242 0.48586106
0.76549030 0.39961252 0.85301077
0.89053891 0.98637306 0.38776266
0.89278068 0.98693023 0.88830487
0.34917410 0.00985236 0.13542215
0.36229126 0.11186555 0.73860151
0.35756647 0.63987862 0.01274924
0.35382918 0.51082443 0.63868537
0.90048632 0.10281256 0.01696180
0.84747309 0.01310685 0.63672837
0.75861232 0.60389088 0.14422823
0.76118565 0.61573451 0.63758670
0.10961384 0.48949482 0.10884965
0.15035740 0.48251888 0.65490080
0.14137336 0.88030235 0.23891170
0.14988574 0.98666509 0.64916100
0.60103389 0.49025980 0.11263598
0.64192804 0.48846644 0.64872740
0.60042012 0.89905349 0.01853492
0.64687373 0.98694436 0.63712498
0.38900472 0.10518275 0.00724349
0.26724910 0.14655211 0.60440814
0.35882987 0.73991290 0.11670883
0.39571594 0.60618278 0.51811670
0.88760653 0.23936643 0.14294137
0.85485177 0.14594699 0.50711128
0.84967705 0.65062338 0.01795888
0.85147290 0.65030357 0.51818451
0.38427911 0.45526130 0.45391292
0.48048970 0.35017893 0.85446351
0.35102400 0.76455882 0.40321366
0.40334305 0.89558304 0.98196861
0.98778749 0.38726469 0.39385705
0.88911985 0.26223220 0.86341438
0.98968431 0.85637541 0.35368096
0.76069034 0.86080844 0.89989267
0.14864342 0.34963866 0.01701849
0.23759830 0.35729227 0.60537763
0.14405963 0.98512524 0.13820311
0.10700517 0.89170618 0.51296077
0.60469747 0.38995445 0.00956018
0.60119565 0.39827186 0.51705250
0.73487780 0.84702142 0.10139812
0.59975788 0.89884788 0.51544279
0.13686476 0.13933298 0.48996895
0.09775939 0.01353406 0.89150668
0.10967034 0.59676698 0.48747987
0.04139625 0.63049875 0.79266936
0.60635053 0.10865747 0.48661646
0.60684802 0.11150479 0.99198874
0.60778338 0.60232478 0.49269764
0.73379908 0.60290926 0.85314173
0.01071886 0.38469682 0.10906236
0.11250076 0.39272538 0.51024706
0.01510948 0.85155557 0.14931673
0.00916073 0.88754303 0.61932654
0.50717480 0.35775504 0.13612646
0.50955149 0.36917131 0.64230883