Li192 P32 S160 Cl32
1.0
20.312311 0.000000 0.000000
0.000000 20.312311 0.000000
0.000000 0.000000 20.312311
Li Cl S P
192 32 160 32
Direct configuration=      1
0.97599666 0.10768260 0.01674037
0.10600488 0.06213187 0.49915021
0.00480272 0.50260324 0.10751196
0.01274207 0.40058579 0.57104747
0.49906398 0.04228576 0.88833115
0.54141724 0.94451057 0.42599617
0.47550002 0.52775634 0.88395639
0.40316807 0.49255242 0.41434767
0.32266521 0.39453169 0.26012569
0.16070660 0.47713336 0.65374276
0.26126632 0.92980481 0.15713657
0.34132108 0.99987164 0.83973448
0.85280776 0.53617066 0.20856745
0.74446177 0.54405445 0.65044243
0.68423638 0.07069087 0.20860026
0.73620515 0.89681971 0.66343879
0.09979181 0.34906676 0.23622480
0.90862932 0.21718580 0.73527301
0.97679060 0.68724842 0.14520381
0.88914423 0.82219201 0.79963574
0.48088380 0.32703916 0.31954943
0.47030245 0.31283972 0.65197250
0.42672211 0.74753851 0.33693640
0.56226996 0.70022902 0.83548179
0.17158348 0.49238757 0.33361750
0.29640165 0.51676311 0.84903320
0.15606850 0.94631020 0.26594754
0.26704253 0.89873933 0.77998415
0.64513223 0.43396074 0.23688995
0.75541558 0.45410346 0.87852640
0.67086331 0.94448445 0.21900161
0.72449582 0.10449738 0.80127855
0.06451322 0.15685258 0.25555095
0.11480850 0.20760160 0.77302128
0.87381399 0.74120649 0.24434920
0.00041117 0.77005165 0.86287565
0.61532624 0.27881529 0.25373292
0.54586733 0.19720390 0.84728511
0.47842852 0.62532250 0.21973718
0.57014053 0.85781767 0.72604423
0.88632778 0.44490158 0.48530063
0.98443393 0.60548504 0.99651513
0.00234241 0.09141151 0.59397014
0.98721279 0.93508038 0.89690675
0.55606166 0.42721603 0.43872441
0.38715206 0.46388723 0.98069144
0.43051537 0.06026036 0.43586248
0.57562042 0.06366901 0.02983258
0.92809386 0.17371193 0.24561608
0.98158512 0.32332774 0.83620604
0.97436738 0.80573633 0.33855643
0.07727927 0.84355416 0.75159186
0.51007290 0.30869927 0.14632147
0.55309641 0.17176281 0.70386472
0.58070410 0.74276227 0.32001465
0.41822653 0.75586389 0.65322215
0.34286404 0.32123999 0.45758987
0.21707118 0.16084244 0.08033052
0.36968462 0.78374817 0.47091501
0.28565186 0.85603225 0.95402284
0.86193454 0.17076399 0.51867420
0.82972241 0.23339409 0.08300425
0.84384537 0.65745566 0.49722029
0.66464125 0.69592530 0.02210109
0.03111962 0.26337983 0.35256189
0.05259906 0.25107075 0.64606992
0.10331594 0.72124218 0.26465620
0.92367809 0.74721558 0.66306509
0.38002027 0.25151059 0.26546619
0.45460920 0.36210595 0.78818838
0.39649595 0.73492243 0.18117145
0.58495863 0.71056805 0.67732369
0.45682327 0.08447177 0.58261515
0.55865337 0.91098672 0.93823067
0.40897140 0.46108516 0.57736848
0.59648067 0.54487992 0.96049690
0.03221329 0.91296874 0.56699406
0.89650779 0.96708006 0.99427079
0.10427851 0.48080652 0.52664892
0.05301249 0.38793795 0.04243349
0.39186702 0.05079968 0.03922001
0.46565126 0.92600160 0.55688815
0.45108699 0.60728862 0.02504908
0.58355330 0.48024466 0.57809720
0.11834189 0.95353672 0.03629556
0.90113818 0.00938794 0.58694265
0.89420733 0.40989419 0.02577366
0.99207670 0.47618807 0.39232682
0.52541447 0.94664170 0.10167385
0.58699662 0.99121578 0.58699712
0.53176077 0.46064994 0.10939691
0.45354601 0.60405628 0.54742581
0.99063382 0.98810380 0.11280968
0.97881230 0.93087856 0.42473245
0.96981393 0.47324837 0.89407996
0.98505360 0.61864622 0.49474119
0.34641805 0.08377334 0.23471979
0.16745395 0.02505886 0.82725794
0.35897208 0.50189694 0.19345900
0.19025611 0.43654106 0.79659941
0.67308800 0.03246939 0.34103754
0.74653155 0.09331374 0.67157204
0.69953506 0.57143386 0.17827479
0.79077343 0.60880648 0.78408588
0.34315840 0.90944153 0.28493191
0.15160392 0.97850476 0.67603923
0.31271874 0.55668578 0.32530625
0.31563955 0.58049387 0.70556630
0.83103107 0.99963827 0.35249970
0.74506264 0.97177053 0.86272407
0.77464581 0.42650155 0.34579934
0.72659996 0.40804793 0.68627565
0.28516730 0.17234360 0.91735728
0.19617267 0.18157357 0.40067193
0.23913082 0.64919167 0.05418041
0.25406660 0.84779704 0.40438069
0.68953191 0.23011474 0.91116667
0.83728288 0.28927969 0.40702904
0.77349720 0.64502567 0.94982179
0.76542637 0.77895659 0.38838359
0.22964746 0.32617920 0.08709971
0.31956284 0.23695805 0.58617604
0.28238465 0.69445813 0.90850093
0.25742415 0.82547586 0.56906460
0.76918830 0.12349600 0.01889292
0.72891008 0.20436004 0.58933272
0.73538202 0.83502676 0.08531685
0.66642843 0.81828152 0.51208934
0.49856126 0.16470986 0.15247622
0.40857712 0.18348869 0.73737904
0.56896687 0.73139794 0.15113109
0.44809388 0.64291898 0.74455175
0.92367568 0.33000229 0.25681392
0.05604295 0.35832832 0.71707521
0.00930548 0.83985625 0.19400374
0.00725666 0.65084565 0.79573915
0.08946115 0.04829074 0.95093175
0.98823351 0.09957892 0.42688981
0.09772394 0.52848110 0.93303594
0.93883060 0.54100949 0.61521673
0.41183898 0.90416209 0.99188850
0.59633100 0.09619469 0.48828941
0.50688913 0.37832198 0.96466496
0.56134346 0.58505874 0.44941339
0.25820679 0.04490414 0.35447418
0.31260747 0.95759586 0.65672473
0.18677600 0.48400108 0.15115309
0.15804364 0.61146914 0.75476243
0.79995805 0.90939614 0.26680839
0.86211988 0.98100435 0.77830684
0.72895025 0.58451564 0.35475343
0.84901287 0.43364203 0.76378233
0.04907715 0.24005323 0.12423941
0.02108282 0.15501234 0.81911867
0.99174658 0.64748903 0.32443506
0.07225736 0.72627728 0.66846356
0.52612984 0.17134821 0.33985471
0.62166733 0.29953348 0.73226770
0.53829119 0.86191683 0.24254412
0.43884546 0.78082370 0.82804408
0.27988309 0.33948540 0.90209985
0.18558713 0.34066960 0.42794039
0.34918732 0.75929362 0.04873062
0.13729814 0.76237878 0.47679884
0.68725820 0.25008419 0.08690725
0.67260684 0.31930015 0.45951094
0.86657856 0.79691119 0.98285232
0.66199903 0.67699361 0.47985550
0.19146422 0.58776617 0.25148680
0.29538855 0.44015716 0.67935580
0.17763496 0.05552626 0.18504831
0.28273108 0.11066018 0.72424931
0.77341329 0.40799371 0.20072795
0.64648132 0.54378798 0.76737775
0.84445949 0.02698901 0.18279057
0.62867415 0.03451894 0.74323019
0.35666319 0.21823655 0.06211391
0.23228736 0.14072894 0.54242703
0.15061308 0.74649700 0.92312671
0.27355695 0.65651438 0.57414761
0.73688014 0.36098997 0.01049202
0.82551003 0.30506917 0.59349750
0.80190379 0.71708594 0.11652357
0.82104839 0.85271881 0.49499807
0.19259163 0.26633915 0.59213510
0.15542631 0.23854304 0.94900512
0.22398489 0.69790647 0.37922971
0.17108508 0.76445600 0.10037473
0.75067493 0.16465558 0.42013952
0.85873642 0.25274268 0.91876425
0.78966579 0.71644605 0.60836792
0.69536520 0.82014563 0.92065875
0.08452203 0.13729266 0.38033892
0.12426333 0.12759129 0.87180713
0.13534162 0.62993928 0.34501573
0.11261542 0.63026837 0.87109962
0.64811882 0.13192029 0.36106119
0.62491570 0.11943567 0.84990629
0.62288303 0.63974952 0.36652529
0.62605605 0.60650546 0.85921661
0.37274510 0.38593379 0.37152937
0.37238023 0.39148987 0.86870356
0.37881997 0.84892858 0.37239371
0.37507512 0.88291919 0.88771155
0.90511844 0.39011185 0.37418606
0.88132297 0.37305935 0.88516455
0.85255301 0.87512333 0.36768237
0.88335270 0.88385453 0.90121669
0.37501544 0.12941734 0.12982396
0.35048570 0.13044765 0.61817758
0.37536172 0.65972586 0.10500899
0.37830672 0.64680302 0.62613341
0.87800541 0.12740280 0.12094259
0.85921874 0.13000425 0.62531932
0.88545983 0.62802321 0.14305853
0.87353397 0.63124030 0.61718540
0.12348358 0.38555799 0.12618289
0.12219560 0.36779960 0.61526555
0.11985755 0.88154364 0.14211924
0.12697165 0.85042272 0.64126780
0.60065812 0.36617987 0.15074887
0.61432957 0.39886915 0.65828925
0.61222474 0.87523176 0.14843202
0.61883095 0.88516819 0.62310163
0.07118331 0.43974306 0.31297227
0.05486714 0.43153846 0.80881064
0.04327141 0.92479139 0.30897015
0.08210549 0.94631051 0.80841443
0.55178732 0.41324778 0.30230544
0.54111058 0.44994244 0.80615454
0.57073985 0.95737555 0.31356965
0.55783871 0.97362235 0.80757975
0.45284665 0.06639632 0.30723117
0.42991110 0.06460213 0.79786865
0.44129691 0.53546528 0.29420149
0.40695920 0.55587404 0.78960258
0.94033964 0.05931418 0.30774064
0.93996705 0.04489221 0.83354720
0.94031032 0.54641052 0.30626982
0.92946160 0.54378460 0.78928122
0.43503656 0.41524496 0.18670986
0.42666517 0.41553412 0.69228835
0.44319498 0.93226043 0.20558645
0.44802485 0.92493739 0.70559774
0.94454478 0.44333133 0.19131988
0.95619768 0.42262805 0.67849224
0.93878102 0.94179634 0.20182749
0.93953924 0.94253905 0.70812485
0.06213287 0.05039063 0.20324542
0.05071161 0.06355455 0.69955602
0.05901352 0.56594866 0.19564985
0.06414682 0.55261650 0.69108073
0.55941312 0.04245183 0.18382611
0.53670955 0.05874042 0.67811211
0.56356902 0.53904963 0.19518888
0.52592733 0.56702473 0.68418763
0.30465646 0.06610103 0.46277200
0.30752692 0.06571718 0.94429041
0.30637061 0.56957519 0.44482393
0.30619631 0.55268882 0.95919819
0.80699120 0.06288498 0.45696559
0.80661051 0.02987548 0.95669619
0.82337662 0.55003086 0.44055324
0.80574043 0.52777267 0.93248330
0.28440493 0.43639305 0.07394369
0.29908384 0.43734072 0.55490577
0.31868236 0.95191788 0.05512757
0.32140065 0.92185593 0.54168748
0.78896942 0.44711066 0.08250891
0.81847073 0.45707123 0.57538056
0.79964325 0.93591882 0.08115714
0.80067850 0.94532765 0.56725704
0.18092378 0.45290495 0.44102250
0.20271667 0.42817529 0.92876985
0.20628552 0.95172921 0.43186150
0.19824472 0.95300669 0.93706628
0.70975618 0.43527901 0.44000236
0.66884267 0.44638245 0.96588733
0.70043023 0.94200376 0.44298961
0.66901378 0.92748359 0.96311139
0.18985917 0.05473411 0.05640322
0.18982503 0.04018013 0.57269044
0.16726849 0.54416143 0.04549509
0.19403755 0.56168938 0.56685339
0.68571140 0.04812711 0.07030664
0.68043240 0.05880420 0.56605469
0.70115637 0.58660228 0.05092768
0.68437746 0.55358077 0.55099640
0.45720773 0.30719080 0.04439773
0.43557668 0.30125820 0.54020810
0.45221529 0.81032532 0.05030990
0.45062390 0.81391969 0.55739163
0.96458921 0.29773973 0.06295366
0.95338200 0.29443677 0.58379327
0.95086542 0.80878111 0.07862278
0.93314465 0.81217011 0.57066848
0.03669644 0.32886241 0.45921058
0.05024865 0.32343397 0.93423823
0.03719020 0.82581890 0.44302314
0.04736557 0.82785578 0.95232290
0.56488380 0.29421355 0.43022216
0.58467269 0.28766342 0.94580466
0.57203350 0.82012209 0.44218863
0.55636140 0.79060486 0.93224466
0.44349398 0.18152035 0.43230849
0.45184642 0.17314635 0.94601489
0.46754086 0.68863939 0.44705000
0.43847440 0.68154850 0.93860839
0.93804574 0.20418984 0.43849039
0.95436296 0.19247321 0.92743789
0.93204875 0.70516962 0.43455279
0.93979306 0.71022700 0.94745020
0.07757293 0.19111541 0.01932240
0.06936680 0.19049812 0.54835405
0.06325706 0.69261088 0.05832795
0.05076538 0.69583061 0.54832547
0.57119853 0.19025916 0.06858836
0.56833668 0.19151865 0.54725776
0.54706379 0.66881612 0.05358448
0.58374064 0.70017780 0.55180682
0.29468873 0.29490576 0.20286475
0.29944007 0.32370172 0.67313363
0.30726591 0.81769539 0.18877336
0.30581980 0.82641573 0.68473201
0.82608905 0.30125291 0.17647622
0.79971498 0.31272864 0.71074382
0.80364964 0.80800179 0.18700015
0.81465557 0.81328220 0.68296445
0.28159707 0.16912381 0.30396964
0.30878796 0.20097233 0.79503072
0.31383014 0.68456615 0.28981375
0.31799788 0.68777280 0.78965088
0.81778157 0.19838077 0.30579711
0.81375013 0.18472622 0.80535405
0.79948750 0.69068288 0.30653224
0.80947263 0.71310646 0.81601045
0.16860220 0.18607250 0.19532916
0.19261838 0.20482814 0.68909340
0.18943756 0.68539479 0.17551146
0.19900610 0.69607401 0.67581354
0.70005335 0.19339839 0.18307495
0.68854952 0.19563911 0.70343129
0.68457085 0.69401571 0.19089573
0.70937462 0.68767448 0.68834664
0.16841812 0.29273478 0.32091708
0.19629052 0.32108627 0.80707513
0.19107585 0.79897195 0.29773424
0.20239547 0.80758437 0.81271712
0.71171938 0.31984654 0.29637152
0.68739336 0.30588741 0.82522283
0.68905242 0.81647433 0.30346608
0.67593044 0.80544625 0.80430352
0.00934266 0.99801213 0.00763917
0.00142079 0.00689724 0.50467307
0.99375315 0.48968721 0.99826978
0.98753696 0.50123478 0.50684929
0.48443033 0.99611861 0.99776767
0.50877577 0.01636650 0.50582854
0.49699272 0.49600986 0.99014250
0.48554655 0.50397046 0.49909802
0.01063278 0.24965195 0.23979500
0.01911630 0.25671405 0.75890910
0.99589325 0.74326543 0.25211455
0.98364451 0.75711674 0.75226970
0.49253889 0.22983067 0.24767793
0.50013977 0.25803476 0.75555057
0.49721264 0.74577984 0.24292701
0.50298980 0.75384265 0.74404657
0.26363215 0.99601151 0.24366101
0.25015325 0.00806881 0.74702934
0.25067606 0.48993648 0.25437899
0.23284408 0.51419749 0.73651581
0.75873800 0.00835411 0.25937164
0.74977183 0.00009678 0.74145594
0.73823522 0.50521495 0.25750267
0.75215980 0.50166291 0.75625814
0.25446521 0.25468099 0.00863675
0.24980989 0.25148594 0.49263523
0.24223879 0.76095777 0.99888767
0.25174921 0.75578365 0.47858741
0.76799626 0.24236639 0.00126344
0.77637145 0.25577310 0.50041886
0.76357687 0.75633580 0.00004914
0.75993491 0.74461537 0.49699936
0.99806208 0.99581054 0.26095781
0.00687597 0.99773254 0.75939394
0.00834275 0.50072322 0.24947700
0.00004807 0.48983057 0.74496213
0.50161918 0.99934750 0.25540675
0.48669196 0.00516342 0.74237584
0.49868253 0.47610207 0.24092491
0.48086985 0.49119759 0.73601577
0.25625406 0.00687699 0.00256463
0.25692639 0.98660587 0.50611949
0.24084274 0.49102451 0.00000356
0.24679356 0.50270263 0.49994975
0.73836706 0.98540107 0.01478075
0.74754920 0.00311367 0.50852848
0.73965722 0.49992617 0.00956780
0.76002900 0.49933826 0.50297074
0.00876246 0.25100937 0.98262470
0.99920178 0.25451590 0.50388135
0.00214910 0.76175102 0.00980487
0.98777000 0.76119064 0.50323920
0.51561801 0.23493039 0.99511287
0.50155753 0.24015914 0.48957264
0.50088642 0.73777157 0.99596533
0.51831341 0.75765903 0.49716540
0.22547974 0.23434197 0.25745111
0.24723922 0.26787362 0.74008473
0.25464852 0.74513746 0.23770253
0.25505340 0.75704947 0.74442783
0.76453188 0.24886696 0.23624827
0.74320402 0.25038079 0.76917082
0.74076478 0.74895595 0.25271880
0.75034507 0.75966412 0.74722670
Direct configuration=      2
0.95962434 0.10415007 0.01628963
0.08996317 0.07004762 0.48954639
0.02785557 0.48019672 0.10671584
0.01670649 0.39366172 0.56265227
0.49704954 0.06451566 0.91128903
0.57180504 0.92650509 0.41678268
0.51486675 0.54631881 0.87986502
0.41453059 0.48057779 0.40401469
0.23850231 0.37897233 0.28584242
0.17814549 0.49027824 0.65423527
0.23487501 0.92840305 0.13940240
0.34063449 0.99320041 0.83019283
0.87158935 0.53353072 0.21813617
0.76994184 0.54705908 0.65530349
0.70220960 0.09036560 0.23218406
0.71006624 0.90786987 0.69764018
0.09229152 0.33765257 0.23236283
0.89499198 0.21810256 0.71518520
0.04372905 0.67860747 0.17875654
0.90314922 0.82887274 0.77732794
0.45697545 0.33265124 0.32757479
0.50809551 0.31666591 0.64890075
0.41417324 0.75479925 0.33033394
0.58917598 0.71926586 0.80858181
0.14623464 0.51519635 0.34217780
0.32824780 0.49609334 0.81881340
0.16348140 0.91633275 0.30453285
0.23693122 0.89130233 0.75465621
0.63073702 0.43779802 0.22861601
0.71548977 0.41644139 0.84646799
0.67822565 0.91703813 0.22602064
0.71286552 0.12333852 0.78660480
0.08480806 0.15218302 0.26574986
0.12185110 0.22538763 0.78070991
0.87882435 0.72645944 0.24596488
0.00845869 0.79171868 0.86921948
0.62053134 0.29521944 0.23301447
0.52547089 0.21028435 0.85228855
0.55976198 0.61273943 0.30093594
0.52081669 0.86903144 0.72640767
0.88391792 0.49024626 0.47901398
0.98070197 0.60707601 0.00981652
0.00174575 0.09021436 0.59888096
0.98164001 0.93739103 0.89415674
0.56689965 0.42119541 0.43988156
0.39078195 0.46772275 0.96784693
0.42299046 0.02835864 0.41507880
0.58997120 0.05667217 0.01786658
0.92762310 0.17088058 0.23425409
0.96145883 0.30994121 0.85756676
0.96418812 0.83357497 0.34404480
0.08361606 0.83253796 0.73643237
0.49230074 0.32416801 0.17704307
0.56813251 0.18737641 0.70494414
0.59476972 0.73745368 0.34212368
0.41152889 0.76542100 0.68184709
0.32066298 0.31870525 0.46182538
0.22673860 0.16451628 0.06427959
0.36520510 0.75552890 0.47959974
0.25427099 0.85814068 0.95364290
0.85861976 0.17351814 0.52497990
0.85875195 0.23482409 0.05135980
0.82832522 0.66418132 0.50728295
0.67072381 0.70633846 0.06599119
0.04151871 0.23847425 0.36676067
0.03036651 0.23216798 0.65068954
0.11672729 0.73876101 0.29881590
0.93002597 0.73808808 0.66645745
0.37820307 0.21502839 0.24209965
0.43783321 0.35931212 0.77733164
0.42299239 0.69296198 0.18149629
0.60718661 0.73850724 0.65548456
0.46508761 0.09615467 0.55564777
0.56614034 0.91171238 0.99263851
0.45386710 0.43079020 0.54991098
0.61391610 0.54977605 0.99377657
0.01053842 0.92316019 0.59332578
0.88728858 0.94565288 0.01822687
0.10153860 0.49459114 0.52498396
0.06219706 0.38174765 0.01912757
0.38768614 0.05214309 0.03288429
0.47964778 0.92032964 0.55890234
0.46011965 0.61172216 0.02661260
0.56349111 0.48567675 0.59044391
0.08701400 0.92797374 0.99846792
0.88438893 0.01586808 0.55998780
0.90747741 0.45039350 0.03081484
0.98403803 0.41995265 0.40806088
0.50837911 0.94943538 0.10603143
0.60179986 0.00103598 0.57552391
0.51560514 0.44064792 0.09862439
0.43959835 0.60505999 0.54158475
0.01452756 0.99118184 0.11870206
0.02037233 0.93545883 0.43499628
0.92836019 0.48735663 0.89917960
0.00867365 0.60795965 0.47952896
0.35749844 0.05254330 0.23884878
0.17228931 0.00880949 0.82804515
0.33780465 0.51509004 0.17234423
0.17657552 0.44310215 0.81432458
0.68523732 0.03842257 0.35879252
0.79808329 0.02556476 0.67118967
0.72626065 0.57636155 0.17501136
0.73607539 0.59220455 0.81651035
0.33758153 0.89111544 0.26143807
0.16924815 0.02271728 0.68350299
0.29192632 0.55581389 0.32754820
0.29358944 0.60237511 0.71544644
0.83413688 0.01728318 0.34454571
0.71756985 0.98597093 0.87604575
0.77701833 0.43097031 0.34827169
0.72442130 0.39704464 0.65671656
0.33856379 0.19561279 0.94238990
0.22340991 0.18932282 0.40696439
0.25997277 0.64565168 0.03583671
0.26872840 0.85565717 0.46363140
0.67856584 0.23048821 0.92720670
0.83890626 0.25633295 0.40605273
0.75602546 0.65170899 0.95162222
0.76893024 0.79158637 0.38253827
0.23723683 0.34253620 0.06721724
0.33652555 0.24027763 0.58955795
0.34002376 0.73596775 0.92129984
0.22940981 0.83410414 0.59408645
0.76022837 0.11688590 0.02416306
0.72949092 0.21471871 0.59511719
0.69533208 0.83860832 0.06650685
0.67509380 0.85134173 0.52977474
0.47266582 0.14959478 0.16879330
0.41645373 0.18918992 0.72829272
0.56473025 0.75823775 0.15933448
0.46583583 0.64627336 0.70025189
0.91631462 0.32591441 0.24490026
0.07706607 0.34874424 0.74493575
0.00273651 0.84076639 0.18123237
0.02089857 0.64865152 0.79013888
0.07999298 0.04939018 0.94338647
0.98222294 0.08934311 0.42821003
0.09553855 0.53980262 0.94452600
0.95580304 0.53397965 0.62669395
0.40908786 0.91634175 0.97793681
0.56408310 0.11576999 0.48181188
0.53504570 0.39918018 0.95904749
0.55169708 0.60181438 0.45673814
0.26321579 0.02043350 0.35350792
0.32740289 0.98763786 0.66578797
0.18570618 0.47848677 0.14641123
0.16323051 0.59916809 0.75775429
0.83299863 0.90315991 0.26371996
0.86933855 0.99687393 0.79287778
0.74628404 0.58286316 0.34181939
0.85225374 0.43613285 0.76995687
0.03252418 0.24023869 0.13201569
0.01405632 0.15443220 0.83929402
0.98899712 0.66019192 0.33250322
0.08321759 0.74813172 0.65186740
0.53227769 0.18870470 0.33332891
0.59946206 0.33569702 0.76471306
0.51200911 0.85744571 0.24190028
0.44831982 0.78991090 0.81984632
0.25783790 0.35757314 0.90497495
0.18126326 0.32112898 0.45565847
0.32173617 0.76379008 0.07521907
0.13147924 0.76435160 0.49148643
0.66318615 0.24901907 0.08681132
0.65831082 0.32113290 0.48357333
0.84909792 0.78453585 0.96819394
0.68007491 0.67384076 0.51223442
0.16357355 0.60275375 0.24113874
0.30477961 0.43873961 0.67199679
0.21669472 0.05905693 0.18624325
0.28146899 0.11036848 0.71078836
0.77528253 0.40505550 0.19253444
0.63657911 0.52162754 0.78679511
0.82751485 0.01685664 0.15750218
0.62081588 0.02613714 0.75438756
0.36062329 0.25592999 0.06258627
0.25414527 0.13860706 0.52586385
0.14547215 0.69997379 0.93683469
0.24888918 0.65611843 0.57709944
0.76499045 0.35185868 0.04465242
0.81627087 0.33317356 0.53158156
0.79961186 0.70129102 0.10690324
0.83119132 0.83866986 0.51084075
0.20822099 0.29570224 0.61198226
0.14904936 0.22224466 0.95414225
0.25732303 0.70898555 0.40983224
0.14507345 0.77454246 0.06243935
0.72853366 0.15554922 0.43729919
0.81196901 0.26218034 0.89201824
0.76970100 0.73462991 0.62479009
0.70293841 0.79259555 0.90563009
0.11371183 0.11754863 0.38383207
0.13099807 0.11830663 0.85200268
0.11004175 0.62450981 0.36028875
0.10603288 0.63495539 0.85397009
0.64252853 0.13921082 0.35678660
0.61425860 0.12263415 0.86142360
0.63427672 0.62819263 0.38119235
0.63223203 0.61604169 0.87048398
0.35948848 0.37978595 0.36305722
0.35519696 0.39669248 0.87107814
0.35707127 0.83666767 0.37626153
0.35980618 0.87592229 0.87398742
0.87581975 0.36807016 0.38163212
0.87100014 0.36595358 0.88143465
0.85736543 0.86354066 0.37481137
0.88800088 0.88035171 0.86770874
0.34884459 0.12616203 0.13148701
0.37556934 0.13642545 0.63342483
0.36386202 0.64215746 0.09609144
0.38274960 0.66122200 0.61985485
0.88847232 0.11201873 0.11182919
0.87595539 0.11201754 0.62154647
0.87356257 0.62012639 0.14360273
0.87617401 0.65511939 0.61221937
0.12439214 0.37408271 0.11588965
0.10962098 0.39092867 0.63512343
0.13337506 0.87545291 0.11052261
0.11506699 0.87222523 0.63699073
0.60324388 0.35048513 0.12823588
0.61652157 0.36066753 0.62608733
0.60618717 0.86381845 0.13411142
0.61832479 0.89181618 0.63141206
0.06617526 0.43358905 0.30032092
0.06182575 0.46329150 0.82493826
0.03478936 0.93774495 0.32603499
0.08263897 0.93779149 0.80722543
0.54128421 0.43047770 0.31839074
0.52669396 0.44521645 0.80777608
0.57903673 0.95268880 0.29973167
0.53779830 0.94781404 0.81449038
0.46459439 0.07628273 0.30339328
0.42759514 0.07228862 0.80732672
0.43183607 0.55045178 0.30734868
0.42051732 0.55986693 0.78609985
0.93494788 0.06469911 0.30884711
0.96355313 0.04138429 0.83687371
0.95026134 0.54667221 0.32180037
0.92981972 0.55841132 0.81348932
0.42522850 0.43112690 0.19747641
0.43394413 0.43879008 0.66571661
0.44498760 0.94840715 0.20128194
0.41835884 0.93013247 0.71350059
0.94397368 0.44430339 0.19221612
0.95094665 0.43828294 0.69619750
0.93623203 0.95043029 0.19665776
0.95424305 0.94259647 0.70434110
0.05935421 0.05525059 0.20687679
0.06126657 0.06250152 0.70549391
0.05285471 0.55750948 0.18817253
0.04940549 0.57613372 0.69758678
0.56774800 0.05785729 0.18337653
0.53501061 0.04728697 0.67797698
0.55814331 0.52803621 0.19099331
0.55797843 0.55741014 0.68632969
0.30879526 0.06127582 0.44757322
0.30541249 0.07387357 0.94654839
0.30933836 0.55956074 0.45181035
0.30451387 0.57412046 0.94829440
0.81190047 0.06668667 0.44602471
0.80309960 0.03532595 0.95890153
0.79795218 0.55232811 0.44277812
0.81787797 0.54050602 0.94115857
0.30077796 0.45343718 0.05663543
0.31658034 0.42405773 0.54096162
0.29629946 0.93932232 0.03854959
0.30392052 0.93677576 0.55829474
0.80975621 0.44626326 0.07403497
0.78724739 0.44866834 0.56962484
0.78698243 0.92221232 0.08367905
0.78842820 0.94285168 0.57221544
0.18412349 0.45310869 0.44210061
0.18536559 0.44240671 0.94454897
0.18999482 0.95464403 0.44319987
0.18204874 0.96752130 0.93336775
0.69108921 0.42749739 0.43169408
0.68252280 0.43830356 0.97454215
0.69526765 0.93559941 0.44836543
0.68107295 0.91591299 0.97028721
0.17289025 0.04741372 0.06538583
0.19093458 0.06327707 0.56113311
0.17887909 0.56561232 0.05481749
0.20577973 0.55296382 0.56773448
0.69043529 0.04885118 0.07724803
0.69087571 0.07899142 0.54601584
0.70731429 0.57627694 0.06203584
0.67976759 0.56613388 0.55436771
0.45714858 0.30914297 0.04734576
0.44198547 0.30535244 0.54543301
0.44686858 0.81306555 0.04350722
0.44935850 0.80595162 0.55154707
0.95401281 0.31106883 0.05110161
0.93445350 0.28898572 0.57920105
0.94568950 0.79940992 0.07269563
0.94064736 0.82863734 0.54995745
0.06117633 0.32273367 0.46907067
0.06020142 0.30471910 0.93265299
0.04975242 0.81181836 0.42566558
0.07754315 0.80776968 0.96342106
0.56345027 0.30217187 0.43162634
0.57025008 0.28309945 0.93640333
0.58477760 0.80040265 0.44769534
0.57515882 0.79598021 0.92188946
0.47237538 0.17143325 0.43898713
0.45363321 0.17364132 0.93768692
0.45754632 0.68568683 0.43166433
0.44892330 0.69991148 0.92158330
0.94743549 0.20630177 0.43332980
0.92987848 0.20241162 0.93028172
0.93048329 0.69266038 0.44955624
0.94075354 0.71152071 0.93830761
0.07118739 0.17974676 0.03068138
0.06317786 0.18338998 0.55265220
0.06798893 0.68261021 0.04182971
0.05610645 0.70129654 0.54780959
0.55470458 0.17612112 0.06240843
0.55495961 0.19552328 0.56749380
0.55277279 0.68882928 0.04713099
0.56392909 0.67209316 0.55074050
0.28394447 0.30473628 0.19657499
0.30824176 0.31652237 0.67313895
0.31466202 0.81101943 0.18262555
0.29854514 0.82104198 0.68379098
0.83614428 0.30411981 0.17064181
0.81430107 0.30332978 0.68102223
0.80792624 0.79129784 0.18053114
0.80124361 0.81321535 0.69864302
0.29606307 0.17962347 0.30929631
0.32045005 0.20389235 0.79144902
0.31464097 0.68033649 0.29271353
0.33132668 0.70980643 0.80431259
0.82942765 0.20929495 0.30011642
0.81864802 0.18965000 0.79397978
0.79225896 0.68537923 0.30858765
0.81941478 0.69649515 0.81801670
0.17521455 0.17756687 0.18181882
0.19536276 0.20504852 0.68650831
0.19224210 0.70434008 0.18020428
0.20151466 0.68465263 0.68943469
0.70748288 0.21203375 0.19601465
0.68939964 0.19972500 0.69441138
0.67963912 0.68498951 0.18622119
0.71062521 0.67027615 0.70902885
0.17647954 0.28357497 0.31657948
0.19137717 0.30813132 0.80247491
0.20710038 0.80185236 0.31470060
0.18349473 0.79073508 0.80786877
0.72284449 0.33956849 0.29305078
0.70660472 0.30104286 0.82840679
0.68960918 0.80924611 0.29152002
0.68345008 0.80836595 0.79430161
0.99397206 0.99399167 0.00219193
0.99599735 0.01544420 0.51698653
0.99779061 0.49487595 0.98971797
0.99436864 0.49137551 0.50374936
0.48813687 0.99411539 0.00235438
0.51422275 0.99716845 0.49357359
0.49379593 0.50191523 0.98878223
0.51302784 0.50430092 0.49445759
0.00570613 0.24663263 0.24751593
0.00520526 0.24072811 0.75804178
0.99766970 0.74680059 0.25213587
0.00999023 0.75772376 0.74688682
0.49333436 0.24268943 0.24650812
0.51010893 0.26501478 0.74701209
0.51240768 0.73686105 0.26865323
0.51295926 0.74927186 0.74058900
0.25849293 0.97706070 0.25535019
0.26160868 0.00350521 0.75023820
0.23553692 0.50849387 0.24963307
0.24353374 0.50718032 0.74366001
0.75180277 0.99386253 0.25960879
0.74441074 0.01871837 0.76868922
0.75828399 0.49786119 0.25412643
0.73051096 0.47962450 0.74936879
0.26432009 0.26018468 0.99198806
0.25453312 0.25176013 0.50961663
0.23941242 0.74762618 0.99753127
0.24241579 0.75778315 0.50677512
0.74320958 0.23930590 0.01042784
0.76364977 0.24780231 0.49201128
0.75056034 0.75409620 0.00067491
0.74738115 0.76736713 0.51084744
0.99413046 0.00487307 0.25797342
0.01316445 0.99729819 0.76412498
0.00282547 0.49451701 0.25542119
0.99727959 0.50565113 0.75781313
0.51296135 0.00858450 0.24939070
0.48126409 0.00397658 0.75619085
0.48859072 0.48451469 0.25469729
0.48529567 0.50207553 0.73333352
0.24167831 0.01058101 0.99597235
0.24694777 0.00753960 0.50450302
0.24123350 0.50824475 0.99694383
0.25761882 0.49406676 0.49983370
0.73729915 0.98039435 0.02253895
0.74235898 0.00722397 0.50227320
0.75727428 0.50550795 0.01064342
0.73058158 0.49882406 0.49777446
0.00295791 0.24773639 0.99131380
0.99795208 0.25134407 0.50852936
0.00421436 0.75102788 0.00482366
0.99015357 0.76012620 0.49326183
0.50587674 0.23652047 0.00022088
0.50567997 0.24572959 0.49730979
0.50331811 0.75673523 0.98539522
0.51403437 0.74673807 0.49944225
0.23710849 0.23573912 0.24844144
0.26230687 0.26098452 0.74311831
0.25501931 0.75132974 0.24029285
0.25419781 0.75182371 0.74779353
0.77247281 0.26936854 0.24410682
0.75770809 0.25653592 0.74640786
0.73913095 0.74141420 0.24307760
0.75563111 0.74676865 0.76284262
Direct configuration=      3
0.93864423 0.09413358 0.00521305
0.10747499 0.08362978 0.48521176
0.03604199 0.47423066 0.11231850
0.99578003 0.40512167 0.59432839
0.51441306 0.03617075 0.89559121
0.55672700 0.90974512 0.45246676
0.51550410 0.58401598 0.90220108
0.41542892 0.48565578 0.39741483
0.27138639 0.38218004 0.29168492
0.15023144 0.49507003 0.68123535
0.23419184 0.89397779 0.14717206
0.33689985 0.99701253 0.80774848
0.85701624 0.52066570 0.26930787
0.74287117 0.56142902 0.65236634
0.69160060 0.09151501 0.24618455
0.73070356 0.86761712 0.73319468
0.08954471 0.33531972 0.23397808
0.90519382 0.24282448 0.69210493
0.02892237 0.66285303 0.16040299
0.91958774 0.83310630 0.75810851
0.42095441 0.36527908 0.27089465
0.52864220 0.30117205 0.63391777
0.41388532 0.75488066 0.32949532
0.57665146 0.73698241 0.82056787
0.16257722 0.50855787 0.33432748
0.35029407 0.49031047 0.82139569
0.14631655 0.90668674 0.27057777
0.24429426 0.89431620 0.76936065
0.62923814 0.46455673 0.24390446
0.76497704 0.41840045 0.85191947
0.65799527 0.90960281 0.21505120
0.73687509 0.10297625 0.78503694
0.07830165 0.15486186 0.23978282
0.10370762 0.17214188 0.75629279
0.89239364 0.70221221 0.21167319
0.01004943 0.76686116 0.85257674
0.61324590 0.27423062 0.22812331
0.52723681 0.22250359 0.85463398
0.55441537 0.61878128 0.27689154
0.54806888 0.86559354 0.72171331
0.88327190 0.53196735 0.52121114
0.92838853 0.58790366 0.02407275
0.99909768 0.08950200 0.59388127
0.99166164 0.94909995 0.88803010
0.53913283 0.41077548 0.42503704
0.39244002 0.47733104 0.96706588
0.41409322 0.01174135 0.41594410
0.57405762 0.07958273 0.03133851
0.91496993 0.18377675 0.21756421
0.94214939 0.29776498 0.85235371
0.96806281 0.83334008 0.33799347
0.09037483 0.84714139 0.75009745
0.51423780 0.31939154 0.14123938
0.56570578 0.18305943 0.69323124
0.58029353 0.74140452 0.33594348
0.40447677 0.74647975 0.68123782
0.33129985 0.32325990 0.46694638
0.25863178 0.15527041 0.07714006
0.37720597 0.77536566 0.47504338
0.24046202 0.85811155 0.94145140
0.87548634 0.20021751 0.53503877
0.86152580 0.24290924 0.07407797
0.84222735 0.67714089 0.49975623
0.65831641 0.67975140 0.05403803
0.03693011 0.23587479 0.36307910
0.04448790 0.27234253 0.64043862
0.10312329 0.73543060 0.30645680
0.95236365 0.72103430 0.62910337
0.38996484 0.21638896 0.24160949
0.41628603 0.33918913 0.76463931