Li192 P32 S160 Cl32
1.0
20.312311 0.000000 0.000000
0.000000 20.312311 0.000000
0.000000 0.000000 20.312311
Li Cl S P
192 32 160 32
Direct configuration=      1
0.92508538 0.08487614 0.00899407
0.10976367 0.99663184 0.48999677
0.01865627 0.47144479 0.11355529
0.01141135 0.39271344 0.56433049
0.50922204 0.02181981 0.89327837
0.55531288 0.93956338 0.43861348
0.51290398 0.54999556 0.88284019
0.40508025 0.48398728 0.42076207
0.27960985 0.38484918 0.28708278
0.16834567 0.48828666 0.65977309
0.24699132 0.90704939 0.15010425
0.34101241 0.99887846 0.84097849
0.85861205 0.53112188 0.22060120
0.77357760 0.54072921 0.62618328
0.69434738 0.07090871 0.19884621
0.72728479 0.91598507 0.67868732
0.08771785 0.33602146 0.24726413
0.90965898 0.25439359 0.70102298
0.99933865 0.65416893 0.16185957
0.88752770 0.79408733 0.77540790
0.47055766 0.31879681 0.33956762
0.52083182 0.29309314 0.63867978
0.40993592 0.74399486 0.33167001
0.57533943 0.73886397 0.83580531
0.16471454 0.49942511 0.33906282
0.32840540 0.48774720 0.83435969
0.15264821 0.91861644 0.25539435
0.27039950 0.88900378 0.78235863
0.64013719 0.44347233 0.24170928
0.76116451 0.49491741 0.85586626
0.66289165 0.91353484 0.22841041
0.74226489 0.12345007 0.79039615
0.08364851 0.15985070 0.26048849
0.11110127 0.23418531 0.82562663
0.88434327 0.71177089 0.21931264
0.99141630 0.78247332 0.86445243
0.61335586 0.27481938 0.23817687
0.51511095 0.22857192 0.86224865
0.52482632 0.63616148 0.26442031
0.52627122 0.86739116 0.72443689
0.87953976 0.47355245 0.46972028
0.92029545 0.58355379 0.01595454
0.99732402 0.08140853 0.58783423
0.98247301 0.96453271 0.88649607
0.55960596 0.43294213 0.43492606
0.39090659 0.46347592 0.97318381
0.43200769 0.06601529 0.43726454
0.58656409 0.07618702 0.02761958
0.91994880 0.16563167 0.24631084
0.98722026 0.32956786 0.84408023
0.97587993 0.82000100 0.32884537
0.04367625 0.85795362 0.72860901
0.49930072 0.33484007 0.17329377
0.59402557 0.18198310 0.74566143
0.58475639 0.74727351 0.33709941
0.41122452 0.75891459 0.66155166
0.32980735 0.33438386 0.47524696
0.26646620 0.16955338 0.09195794
0.35765842 0.77206664 0.47808186
0.26770552 0.85448462 0.95844482
0.83957878 0.15979476 0.51702091
0.84518733 0.24287731 0.08794388
0.82597429 0.66034758 0.49837030
0.63779921 0.71799923 0.98635256
0.03337416 0.23554774 0.36723687
0.06687135 0.18901335 0.68263697
0.10968515 0.72904365 0.26730196
0.94409192 0.72208050 0.64467429
0.38500510 0.21656699 0.23535451
0.41394647 0.33496116 0.77316925
0.41880860 0.73956070 0.16100472
0.58862422 0.75140310 0.66734938
0.47851751 0.09949961 0.59119691
0.59043501 0.91037577 0.00166801
0.43433662 0.43635486 0.56455728
0.61165143 0.55159253 0.98549373
0.00787223 0.90419580 0.57508523
0.92152824 0.90917966 0.00536117
0.10650108 0.50160427 0.50450655
0.08363985 0.40619615 0.00295204
0.41818575 0.07741521 0.02702011
0.43661240 0.93535337 0.55216384
0.45153716 0.61440475 0.02084515
0.57897636 0.48726868 0.58205010
0.09338614 0.91599475 0.01420928
0.88393597 0.01289496 0.53200381
0.91420847 0.41276174 0.00125091
0.99231042 0.41642681 0.41055257
0.52172127 0.95880433 0.11709008
0.58350281 0.98686782 0.59692090
0.50224846 0.49464241 0.10758418
0.46594562 0.60756342 0.55430426
0.00496865 0.00021897 0.11381021
0.97604310 0.92460609 0.41872446
0.97560175 0.47653142 0.89100891
0.99224731 0.60572388 0.47869276
0.35673460 0.04148090 0.22022651
0.17418502 0.02353709 0.83765926
0.32272063 0.49667981 0.16344693
0.18381291 0.43955900 0.81858565
0.67321944 0.01115219 0.34373649
0.75905885 0.08511047 0.65151732
0.69683814 0.56986818 0.18039201
0.79670387 0.61688905 0.73782914
0.32536634 0.89574672 0.27742253
0.16946159 0.99459515 0.68063413
0.31673020 0.55884800 0.31061226
0.31815310 0.59885158 0.72606044
0.83341917 0.99880525 0.34323215
0.77191200 0.98410384 0.85662184
0.77111474 0.42039831 0.33618821
0.71877237 0.41111608 0.67395744
0.26189685 0.16541383 0.91792841
0.21877612 0.21992693 0.39814564
0.25369698 0.65541798 0.07514390
0.25139426 0.83246069 0.41020851
0.68281124 0.23376379 0.90905440
0.84465428 0.26868992 0.40871407
0.74765934 0.66088303 0.91796945
0.75237779 0.75307564 0.38404313
0.23611459 0.32898136 0.08970979
0.34306906 0.23654293 0.58809210
0.25308625 0.65347792 0.91190303
0.24261471 0.83209279 0.58799974
0.77672489 0.13672964 0.02640013
0.67801882 0.21616644 0.56791431
0.73517044 0.83379347 0.08046239
0.66136945 0.83299681 0.51731600
0.50098356 0.15807826 0.16993968
0.42234077 0.17578007 0.73900586
0.57528348 0.76444777 0.15893552
0.46872568 0.64671616 0.72010436
0.92193654 0.33474470 0.26312322
0.04879106 0.35223885 0.71142966
0.00903333 0.83073809 0.16775283
0.02331834 0.64536861 0.79543276
0.09655991 0.07218631 0.98701125
0.00617239 0.08914461 0.41921269
0.08528487 0.58161564 0.98631499
0.96622958 0.53626313 0.61152862
0.41458040 0.91724152 0.98559778
0.58833708 0.09629381 0.48528202
0.52759971 0.39532314 0.97908822
0.51816581 0.58948623 0.41691251
0.24508399 0.02977652 0.35298637
0.33315306 0.00028098 0.66429849
0.16529528 0.47709117 0.16079571
0.17322997 0.59373059 0.76911487
0.81107897 0.88493691 0.26339365
0.86656030 0.01549383 0.71640213
0.72505372 0.57542067 0.33363717
0.84944685 0.43297256 0.74606915
0.02852788 0.25926751 0.13885050
0.97343387 0.16489692 0.82454357
0.00307237 0.65920135 0.33007235
0.09256820 0.74260815 0.67464025
0.52395901 0.16999222 0.33647812
0.58470238 0.34969519 0.75314532
0.48952450 0.85919848 0.27907162
0.40915121 0.77166981 0.82913048
0.26704471 0.33738485 0.92242975
0.16279602 0.33606029 0.50191988
0.35401174 0.73486041 0.01633435
0.12816959 0.77215087 0.51669505
0.67768490 0.25802824 0.09262555
0.68436069 0.31207577 0.43517189
0.86421981 0.76944355 0.97181109
0.65750682 0.66674096 0.48749967
0.17725291 0.59593425 0.24401566
0.31240221 0.43802457 0.67878893
0.19257770 0.06207311 0.18745333
0.28023998 0.11558971 0.73413407
0.75296256 0.40631379 0.16844806
0.64010584 0.53509807 0.74792276
0.83067278 0.00947434 0.16362771
0.64005179 0.03336862 0.77117725
0.37334272 0.25931928 0.00561090
0.23974056 0.14154313 0.52720853
0.15608156 0.74507648 0.90796184
0.26373272 0.66532915 0.57808563
0.74343807 0.36401193 0.99849773
0.81291228 0.31859771 0.55799415
0.77308017 0.67985121 0.08955748
0.82223790 0.84102558 0.49094726
0.21091096 0.28666623 0.62041229
0.14755944 0.22361491 0.98279972
0.23010045 0.66996917 0.40989464
0.15926480 0.76819064 0.07433729
0.73588044 0.16054518 0.40474553
0.84079709 0.26742795 0.91524178
0.76757471 0.73381312 0.61255845
0.72868705 0.82587671 0.91518985
0.10689757 0.14148211 0.37612984
0.14578385 0.13588519 0.88986510
0.12764397 0.62756867 0.34905590
0.12895732 0.63164437 0.87327261
0.62966740 0.11798099 0.37803608
0.63707609 0.13429297 0.84746450
0.61783396 0.63631648 0.37200625
0.62603796 0.63336655 0.89517557
0.36957873 0.37928273 0.37362019
0.37108247 0.38560207 0.87952689
0.36724831 0.84664094 0.37563068
0.35700389 0.88160455 0.87589606
0.87924131 0.38013380 0.38069383
0.88962795 0.38120011 0.88478444
0.87166966 0.87943597 0.37293382
0.90077863 0.86319334 0.88724112
0.38248116 0.12704026 0.13561303
0.36930207 0.12822148 0.64014344
0.36864606 0.64577451 0.10142088
0.37871222 0.64503075 0.63186511
0.86936116 0.12278155 0.11218444
0.87476947 0.10119633 0.61622875
0.88282922 0.62359087 0.13269309
0.85893655 0.62941615 0.61967924
0.11571856 0.37571344 0.12311871
0.12488012 0.37786023 0.61979554
0.12549725 0.87422396 0.12749717
0.11434767 0.84956753 0.61922431
0.63419978 0.36247544 0.14913145
0.61137426 0.38042944 0.63846959
0.61958684 0.87384670 0.12106874
0.62062180 0.87510331 0.63054609
0.06302676 0.43707387 0.31441441
0.05904607 0.43212083 0.80820727
0.04650237 0.92849070 0.31810660
0.07476453 0.94933604 0.80269002
0.54353336 0.41971761 0.31053705
0.55736304 0.46084771 0.80521272
0.56767250 0.94569632 0.31369435
0.55564310 0.95626805 0.80372851
0.45078829 0.07086172 0.31040728
0.43869406 0.07009807 0.80571736
0.44457407 0.55477556 0.31550558
0.42775669 0.55936383 0.79458395
0.93927251 0.05693015 0.31535680
0.94492111 0.05048127 0.80246539
0.94532399 0.55611084 0.31256212
0.94272049 0.55018365 0.80327109
0.43260774 0.44182721 0.19085249
0.43813967 0.42783996 0.69177515
0.44182971 0.94464898 0.20887820
0.44284436 0.95040505 0.68650789
0.94350324 0.44012075 0.19998058
0.95511952 0.43723955 0.68308469
0.93811415 0.94179023 0.19502068
0.95885807 0.93844596 0.68697969
0.06126192 0.04985247 0.20515453
0.06798468 0.06456151 0.68666173
0.06444438 0.55036986 0.19339071
0.06633328 0.55837022 0.69652792
0.56401375 0.05215260 0.18888003
0.55506255 0.07249661 0.68729544
0.56139530 0.54113328 0.20063441
0.54138987 0.55954926 0.67653501
0.30694534 0.06749829 0.45653270
0.32002832 0.06047445 0.94692740
0.30705678 0.56103409 0.43930367
0.30731515 0.54847760 0.94303195
0.80108952 0.05641433 0.44877357
0.81632629 0.04970067 0.94888797
0.79709884 0.55565829 0.43524272
0.81892900 0.55958885 0.94287541
0.30445837 0.43445524 0.05946158
0.31121761 0.43487337 0.55091886
0.30834293 0.93524641 0.05070284
0.31346804 0.93295212 0.56105647
0.80868045 0.44334582 0.06114904
0.79523684 0.44430970 0.55513588
0.81204478 0.93129759 0.06569842
0.79373646 0.93964850 0.56514771
0.18884012 0.44213250 0.44284566
0.18818647 0.43144015 0.94359035
0.20249211 0.94400127 0.43572226
0.18962446 0.95547532 0.94047537
0.68402499 0.43953078 0.42779090
0.69045958 0.45851085 0.94683971
0.68339732 0.93940950 0.44497681
0.69712337 0.94051237 0.94319904
0.20027401 0.06589958 0.06129443
0.18975825 0.04100940 0.56670617
0.18638670 0.55125412 0.05792253
0.19726764 0.55655070 0.55998330
0.69994226 0.05276204 0.06607308
0.68050036 0.05993498 0.56207902
0.70435620 0.57581703 0.06032896
0.67781276 0.55623440 0.54997389
0.46641365 0.31784252 0.05499364
0.43685525 0.30804292 0.54983862
0.43877199 0.81593800 0.05393978
0.44171674 0.81240952 0.55466391
0.94840187 0.30419896 0.05634805
0.93527199 0.29669491 0.58031858
0.94453052 0.80174758 0.06429586
0.92211746 0.80839207 0.55762203
0.04799504 0.31536556 0.46134773
0.06181706 0.29985961 0.93611251
0.04010669 0.81395287 0.44185186
0.06693823 0.81062200 0.95371284
0.55813285 0.30846507 0.43320351
0.57890483 0.29255562 0.94173413
0.56388506 0.81199246 0.44165196
0.56383207 0.80723610 0.94179786
0.44449563 0.19308748 0.43182822
0.45611691 0.18423549 0.95906426
0.44654058 0.69146915 0.44501117
0.43912315 0.70091387 0.93439753
0.93901700 0.19439775 0.44770674
0.93417926 0.18992256 0.93632089
0.92745427 0.69438768 0.43340372
0.95386220 0.69148884 0.94257192
0.05474305 0.18096413 0.04895079
0.05823383 0.18443748 0.56116721
0.06555893 0.68605197 0.06333468
0.03722855 0.69176137 0.55510415
0.57501114 0.19028668 0.07394650
0.55478427 0.19697832 0.55858621
0.54477466 0.69170690 0.05976038
0.56003753 0.69481556 0.55984892
0.30126277 0.29630804 0.19425555
0.31200008 0.31201156 0.69153347
0.31732505 0.80749940 0.19315013
0.30416435 0.81154979 0.69302946
0.82190224 0.30627874 0.19362649
0.80708026 0.32707302 0.68579280
0.80220232 0.79408169 0.18112463
0.79799553 0.81503183 0.69737066
0.29177317 0.17435131 0.30561212
0.32082415 0.20114192 0.81160160
0.30412216 0.68583091 0.30752837
0.31039832 0.69184737 0.80647294
0.81805981 0.19302207 0.31386976
0.82244467 0.21165044 0.80047247
0.79157333 0.67989007 0.29722338
0.80685601 0.70671802 0.81725377
0.17784040 0.18818332 0.18368583
0.19581882 0.19788553 0.70402901
0.19352093 0.69831067 0.18252243
0.19842352 0.68242343 0.68711478
0.69808417 0.19639818 0.19782157
0.70378635 0.19526007 0.68850129
0.67551483 0.69097038 0.17725268
0.69395274 0.68774600 0.69847924
0.18640229 0.29967891 0.31013555
0.20111160 0.31499492 0.81974202
0.19327221 0.80739966 0.30373422
0.18438839 0.80317204 0.80145013
0.70545301 0.31511342 0.31051714
0.69365553 0.31438775 0.80648161
0.68750728 0.80741221 0.29770262
0.67480911 0.81111373 0.80825854
0.00449405 0.99480524 0.99940784
0.99606400 0.00059890 0.50276235
0.00135542 0.49446151 0.00194773
0.99100298 0.49382467 0.50457269
0.50508362 0.99548570 0.00581218
0.50604523 0.01572687 0.51052657
0.49982849 0.50848042 0.99303491
0.49559386 0.50594968 0.49715093
0.00474058 0.24972032 0.25307220
0.01170741 0.25197160 0.76004574
0.99605620 0.74035564 0.24569288
0.99660327 0.75145536 0.74807846
0.49874901 0.24602167 0.24855300
0.50539369 0.25936351 0.75136380
0.49944179 0.74807299 0.25207577
0.49724026 0.75609459 0.74529884
0.25341608 0.98261654 0.24456021
0.25822162 0.00375660 0.75566387
0.24245814 0.49642400 0.24879923
0.24769150 0.50452886 0.74773671
0.75296556 0.98770936 0.25571142
0.75276012 0.01504943 0.74605415
0.74723674 0.49423008 0.24812477
0.75492148 0.50561359 0.73881338
0.25923732 0.24930890 0.00334329
0.24861065 0.25509397 0.51266093
0.24115665 0.74144406 0.99143199
0.24274350 0.75214370 0.49813080
0.75882557 0.25052563 0.00213352
0.75917152 0.24232812 0.48989898
0.75113915 0.74968049 0.99719903
0.74560617 0.74837695 0.49875235
0.99653738 0.99450394 0.25995655
0.01236918 0.00288545 0.74388823
0.00417467 0.49711587 0.25751302
0.00643880 0.49574716 0.74870990
0.50647232 0.00594369 0.25823351
0.49576209 0.01277290 0.74502545
0.49426990 0.48838555 0.25644636
0.49000368 0.49941839 0.74034425
0.25439605 0.00480950 0.00122347
0.25638964 0.99455784 0.50517785
0.24522055 0.49252230 0.00052478
0.25329090 0.49903771 0.49792549
0.75665031 0.99220561 0.00748389
0.73782816 0.99864019 0.50507213
0.75654737 0.50950506 0.00494651
0.73554468 0.49775626 0.49160676
0.99867765 0.24340825 0.99306516
0.99483061 0.24640576 0.51562293
0.00809796 0.74720055 0.00752637
0.98063951 0.75363443 0.49634863
0.52024253 0.24461683 0.00927044
0.49933487 0.25099424 0.49128486
0.49695142 0.75565501 0.99722553
0.50452653 0.75464996 0.50016189
0.23853839 0.23790274 0.24849604
0.25685405 0.25824308 0.75810950
0.25440963 0.74986152 0.24636203
0.24831285 0.74724949 0.74833580
0.76156048 0.25163935 0.25426102
0.75467304 0.26353709 0.74639585
0.73709728 0.74161538 0.23849656
0.74070122 0.75577818 0.75754381
Direct configuration=      2
0.94632478 0.09395340 0.02820767
0.09789742 0.08332381 0.49583765
0.01673360 0.47574266 0.11474968
0.01252828 0.39340730 0.56923225
0.51781270 0.03468806 0.88805085
0.55292499 0.93892323 0.43559494
0.50296663 0.56989406 0.88651515
0.41523648 0.48353380 0.41003939
0.28371864 0.38587206 0.28402785
0.16767057 0.48938595 0.66106347
0.24635402 0.91091402 0.14587541
0.33176765 0.02367042 0.83162694
0.86308030 0.52868039 0.23277117
0.75472168 0.58243087 0.65610587
0.69677896 0.07246227 0.19284457
0.71457438 0.89252611 0.71552485
0.09051999 0.33352287 0.25255947
0.89427927 0.28294446 0.74985116
0.00107086 0.65841748 0.17082834
0.92126753 0.84006192 0.75985685
0.47443343 0.32148119 0.33758412
0.50571525 0.32428680 0.64977085
0.41461453 0.75071614 0.34049748
0.58123071 0.73447974 0.82646151
0.16762610 0.50042784 0.33926872
0.32668481 0.49284300 0.83838964
0.15307063 0.91749760 0.25276740
0.27285302 0.89011986 0.78526763
0.63762028 0.45584326 0.23764834
0.74315152 0.41963884 0.82918830
0.65481173 0.91950716 0.22379187
0.76735832 0.11825086 0.75733563
0.08260073 0.15710030 0.26354408
0.11625984 0.22906734 0.80154397
0.88452848 0.71474932 0.22954544
0.99008332 0.77741199 0.86365219
0.61475979 0.28157315 0.24194726
0.52121187 0.20798333 0.85606703
0.53441724 0.63232166 0.27806884
0.52466433 0.86658797 0.71541511
0.87937499 0.47308751 0.47368638
0.95854494 0.59894240 0.02552471
0.99166084 0.07559124 0.59803204
0.98036006 0.96471948 0.89151100
0.56082601 0.43856029 0.43322138
0.38489533 0.47099741 0.98210299
0.43162527 0.06433003 0.43439113
0.59182056 0.08202631 0.00014554
0.91799210 0.16520000 0.23725051
0.99280527 0.33631905 0.85286474
0.97089912 0.82832207 0.33482860
0.08844528 0.84091659 0.74923430
0.50322380 0.33423606 0.16806665
0.57395411 0.18996973 0.70051090
0.58578097 0.74870494 0.34050974
0.40769368 0.75688189 0.66186681
0.33557141 0.33896383 0.47950834
0.25051758 0.16370685 0.08834788
0.36120236 0.77938566 0.48184084
0.26425158 0.85947598 0.96129355
0.83680965 0.15779869 0.51813521
0.84201059 0.24249870 0.09297373
0.83065260 0.66132303 0.50273252
0.67021225 0.70164735 0.05849106
0.02774705 0.22971872 0.36868097
0.00144144 0.21853952 0.65997744
0.11108427 0.73385068 0.27259409
0.92018559 0.72903714 0.66373626
0.38951245 0.21935494 0.23307644
0.41460211 0.33756198 0.77757242
0.39970909 0.70427592 0.20376249
0.59429809 0.75173543 0.66235911
0.47741493 0.10005782 0.58573420
0.58229611 0.90863384 0.99897502
0.43369240 0.43775554 0.56438806
0.61084449 0.53402554 0.96906979
0.01433399 0.91224204 0.58405036
0.91417275 0.91830367 0.01616393
0.10773486 0.50285570 0.50493840
0.08105234 0.39867692 0.00897149
0.42227638 0.08019132 0.02187184
0.43372368 0.93708071 0.55200862
0.45324243 0.61463554 0.02584873
0.57682751 0.49095480 0.58495661
0.09428506 0.91300438 0.00284203
0.88857112 0.01249335 0.52259551
0.91610982 0.40385380 0.00685946
0.99250343 0.41610181 0.41215875
0.51936459 0.96789280 0.11179307
0.58725526 0.98563054 0.59196894
0.50933339 0.48571206 0.10204412
0.41215111 0.59423512 0.52259550
0.03151471 0.97758214 0.11469881
0.06519628 0.93692172 0.43756525
0.93502920 0.48910188 0.90255692
0.98972587 0.60372275 0.48071570
0.35273841 0.05108724 0.22418442
0.16270869 0.02563024 0.82814050
0.32615919 0.50359226 0.16189403
0.18486249 0.43364571 0.81672578
0.67015795 0.01428553 0.33993764
0.77072213 0.03093459 0.63580446
0.72883823 0.57944393 0.16488039
0.74875079 0.58517422 0.83030881
0.33076753 0.89920634 0.27322799
0.16228684 0.98277621 0.67081227
0.31869465 0.55705812 0.31093166
0.31702723 0.59715580 0.72401560
0.83102596 0.99170164 0.34007040
0.76004005 0.98467648 0.86512674
0.77013642 0.42398722 0.33715790
0.71956546 0.42341578 0.66297265
0.31346427 0.18583285 0.93051455
0.25074504 0.22768773 0.39953657
0.26647717 0.63668706 0.03211903
0.25390984 0.83906877 0.41280885
0.67069808 0.22989910 0.92173498
0.84236311 0.27121297 0.40947195
0.75913235 0.64973556 0.96172070
0.77027497 0.77115940 0.38166683
0.22951103 0.32849013 0.09301273
0.34690244 0.24524262 0.59297712
0.32671315 0.74101821 0.91456201
0.23221415 0.83275098 0.58504132
0.77975508 0.13375395 0.02710489
0.68332905 0.20737197 0.57022802
0.73179242 0.84109255 0.08500955
0.66665845 0.83544351 0.51323583
0.50596523 0.16178807 0.16557563
0.41610017 0.17941593 0.73369945
0.56075374 0.76064907 0.15585286
0.47161033 0.64243328 0.71310355
0.92260073 0.33289383 0.26450411
0.04912033 0.35444239 0.71703871
0.00847196 0.83070316 0.17311845
0.02645269 0.64653549 0.78765922
0.09307459 0.06975184 0.98147229
0.98986653 0.07966562 0.41139671
0.09913847 0.54242128 0.95857433
0.96282142 0.53886217 0.61198078
0.41813667 0.91619926 0.97785106
0.58709286 0.09684156 0.48317977
0.49598319 0.39717530 0.93968982
0.54042812 0.60753473 0.46084517
0.24082990 0.02446762 0.35107078
0.32501590 0.99189792 0.66067901
0.16705251 0.47755405 0.16112326
0.17235971 0.59355480 0.77287486
0.78648935 0.87832454 0.27005493
0.86423338 0.99755694 0.74251582
0.72447441 0.57733320 0.33437440
0.85744291 0.49183133 0.74020590
0.03445426 0.25640872 0.14129649
0.99902560 0.15835129 0.83839565
0.00316060 0.66431552 0.33689708
0.08338755 0.74250389 0.65731208
0.52447657 0.17177771 0.33548772
0.58450514 0.34653770 0.75689051
0.49347395 0.85838305 0.26497269
0.42377319 0.77001240 0.82291787
0.27213796 0.34050790 0.93429149
0.16561870 0.33304167 0.49818439
0.33831251 0.75451121 0.07231867
0.13434908 0.74120265 0.48213510
0.67126226 0.25434961 0.09429729
0.68481082 0.31594683 0.44142193
0.84352183 0.77081936 0.92217068
0.66937745 0.67157944 0.48647517
0.17959968 0.59769504 0.24425067
0.31088263 0.43725293 0.68276151
0.18804058 0.05947720 0.18647324
0.26805152 0.11479961 0.72297146
0.75179958 0.40776983 0.16951083
0.62892911 0.53058917 0.77310855
0.83665832 0.00745613 0.17185043
0.63649398 0.04170209 0.77487584
0.36382266 0.24410275 0.06272355
0.26720827 0.14151608 0.53544842
0.16261700 0.72694038 0.91324510
0.26103296 0.66945238 0.58230208
0.73990868 0.35976990 0.00653808
0.81246622 0.31833581 0.56392111
0.84714698 0.73295660 0.08001224
0.83512340 0.83987976 0.49069287
0.21233469 0.29027085 0.62176449
0.15012240 0.21571590 0.96956097
0.24518606 0.67000286 0.40631272
0.15662303 0.76028317 0.07478853
0.73562812 0.16377343 0.40277867
0.83773182 0.26258336 0.92220776
0.76718384 0.74241748 0.61205028
0.69059769 0.81127878 0.92969084
0.09445995 0.12933574 0.38199527
0.11582187 0.13167591 0.87783958
0.13713699 0.63124493 0.35331870
0.11416862 0.62500985 0.86938502
0.62870098 0.12008930 0.37701100
0.60928692 0.11938703 0.87709405
0.61854955 0.63725741 0.37592316
0.62208936 0.60878865 0.86683634
0.37066576 0.37790417 0.37343571
0.37485502 0.39104646 0.88546312
0.36718573 0.85173245 0.37665514
0.35586620 0.86003301 0.87816251
0.87928823 0.38197125 0.38251254
0.88648201 0.37483981 0.89026511
0.85431072 0.86495030 0.36836599
0.90491694 0.86521052 0.87635919
0.38113445 0.13764532 0.12962365
0.36359782 0.13243793 0.63023460
0.36550343 0.63851840 0.10730755
0.37362010 0.64273842 0.62676095
0.87046718 0.12580247 0.12091944
0.87266048 0.09647983 0.61226192
0.88832361 0.63147260 0.13702352
0.86626491 0.62923967 0.61513324
0.11718499 0.37383434 0.12733485
0.12470999 0.37842663 0.62097443
0.12283121 0.87946217 0.12735321
0.12116508 0.86499514 0.63323745
0.63391297 0.36441001 0.14960689
0.60928154 0.38403753 0.64197909
0.61361706 0.87065797 0.12135325
0.62360411 0.87260378 0.63177972
0.06642086 0.43713031 0.31738939
0.06093813 0.43433786 0.80965923
0.04771488 0.92841316 0.31513415
0.07005015 0.94411110 0.80950523
0.54278929 0.42305538 0.30841630
0.54384020 0.44827901 0.81381060
0.56404997 0.94588851 0.31129435
0.55267256 0.95595500 0.79847909
0.44918585 0.07307533 0.30880298
0.43895691 0.07411042 0.79877761
0.44062985 0.55471510 0.30964853
0.42378639 0.55871106 0.79228118
0.93349119 0.05451128 0.30643699
0.94586946 0.05013629 0.80933085
0.95049717 0.55722675 0.31791910
0.94307229 0.55284437 0.80073541
0.43246389 0.43933869 0.18575697
0.43419126 0.42650179 0.69058857
0.43913112 0.94814214 0.20518613
0.43819451 0.95026614 0.68339132
0.94571999 0.44147215 0.20434547
0.95367232 0.43803922 0.68541454
0.94391538 0.93911588 0.19011212
0.95249636 0.93827856 0.69048413
0.06161819 0.05213230 0.20337188
0.06594448 0.06002448 0.69357231
0.06654761 0.55139259 0.19621928
0.06672600 0.55805985 0.69543431
0.56296751 0.05328080 0.18780927
0.55485458 0.06921135 0.68074453
0.55873260 0.54265620 0.19800186
0.54559200 0.55235429 0.68632743
0.30531309 0.06378214 0.44867896
0.32063165 0.06278678 0.94618883
0.31475231 0.55996486 0.44291526
0.30108978 0.55087480 0.94744176
0.80134802 0.05748147 0.44115456
0.81598751 0.04346783 0.95337270
0.79833274 0.55766667 0.43920496
0.82251866 0.55219400 0.93236976
0.29867488 0.43289152 0.06238098
0.31153757 0.43649026 0.55632122
0.30869623 0.93704329 0.04702514
0.30724073 0.93104795 0.55459867
0.80858304 0.44307216 0.05837467
0.79552611 0.44636917 0.56036291
0.80641021 0.93447770 0.07563476
0.79612112 0.94045413 0.55714284
0.19286913 0.44439700 0.44365998
0.18325318 0.43256746 0.94452107
0.19387333 0.94591900 0.43376352
0.19191085 0.95687326 0.93307088
0.68514241 0.44302581 0.43221697
0.69441344 0.44615587 0.93935095
0.68294528 0.94001759 0.43869490
0.69290984 0.93640632 0.95151470
0.19467165 0.06143096 0.05763367
0.19358404 0.04938718 0.56587516
0.18083741 0.55096828 0.05797630
0.19899900 0.55887835 0.56028656
0.69487186 0.05726487 0.06491261
0.68357047 0.05934893 0.55710262
0.70210620 0.57084964 0.04328376
0.67752939 0.56022824 0.55312946
0.45842440 0.31737888 0.05479966
0.43969693 0.31086290 0.55015182
0.44297238 0.81524804 0.04487289
0.44722493 0.81352108 0.56000113
0.94906690 0.29965237 0.06335688
0.93982136 0.29355934 0.58241754
0.94611590 0.80905105 0.06880944
0.93516299 0.80950792 0.56045794
0.04941497 0.31129908 0.45884419
0.06231464 0.29810094 0.94248633
0.04787196 0.80945827 0.43677976
0.06810050 0.80319619 0.95412931
0.55981034 0.31005588 0.43415384
0.56502149 0.29331769 0.93425280
0.56422354 0.81436971 0.44241841
0.56191705 0.80755324 0.92984126
0.44604206 0.19443059 0.43363304
0.44397945 0.18430889 0.95626434
0.44704255 0.69457029 0.44650873
0.44357164 0.69416529 0.92805034
0.93567489 0.19419974 0.44720015
0.93439320 0.18778635 0.94061786
0.93059928 0.69617211 0.43644817
0.94159816 0.69698300 0.94806797
0.05525396 0.17591492 0.05010725
0.05612239 0.18205270 0.56332347
0.05575341 0.68222668 0.06383572
0.04872947 0.68853357 0.54888567
0.56871907 0.18953296 0.06344333
0.55721303 0.19506774 0.55789747
0.54862387 0.69087055 0.05256615
0.56571173 0.69366500 0.55532262
0.30270145 0.29646800 0.19188665
0.31307696 0.31275634 0.69685787
0.31773501 0.80762696 0.18790195
0.30028415 0.81484378 0.68903820
0.82151032 0.30908210 0.19484182
0.79644054 0.32874938 0.69275769
0.80002377 0.79406787 0.18207565
0.81282906 0.80531892 0.70422737
0.29904394 0.17130654 0.30037894
0.31859833 0.19113412 0.80651813
0.31244558 0.68761134 0.29822620
0.31631872 0.69372565 0.80042492
0.81970833 0.19520130 0.31361091
0.81491896 0.21313020 0.80636228
0.78868555 0.68090204 0.29842710
0.80287295 0.69346629 0.82796819
0.17773960 0.18721452 0.18613719
0.18987974 0.20509661 0.70496275
0.19043103 0.70080745 0.18442584
0.19545569 0.68533584 0.68950105
0.69641789 0.19896485 0.20145172
0.69632942 0.19290144 0.69614493
0.66889295 0.68652868 0.18234226
0.69874128 0.68848737 0.69628581
0.19354240 0.29561453 0.31297836
0.20638605 0.31062394 0.82875498
0.19875168 0.80978660 0.30545856
0.19074972 0.80140504 0.81029072
0.70742133 0.31740679 0.31401696
0.68535688 0.31155628 0.81564890
0.68539243 0.80838244 0.29502805
0.68383467 0.80984503 0.80504416
0.00624120 0.99220997 0.00299722
0.00464821 0.00647130 0.50524515
0.00035547 0.48877669 0.00106737
0.99220174 0.49199114 0.50657533
0.50487621 0.99790988 0.99938933
0.50562581 0.01464868 0.50818670
0.49585669 0.50850881 0.98918289
0.49323519 0.50778769 0.49795682
0.00616974 0.24816387 0.25465566
0.00624999 0.25678834 0.76721567
0.99659579 0.74402331 0.25307350
0.00414975 0.75525740 0.74642239
0.50173505 0.24760759 0.24677765
0.50025420 0.26041540 0.74970709
0.49860464 0.74369365 0.25751234
0.50189339 0.75305238 0.73748618
0.25349306 0.98290771 0.24176030
0.25149217 0.00258020 0.75035421
0.24436885 0.49724859 0.24860690
0.24645003 0.50428262 0.74973915
0.74883191 0.98777543 0.25399717
0.74870858 0.00520524 0.74981202
0.74869577 0.49848191 0.24614494
0.74279457 0.50418370 0.74695360
0.25768751 0.24892555 0.00935321
0.25543459 0.25725384 0.51512412
0.24675441 0.74793513 0.99782199
0.24773085 0.75107242 0.49509665
0.75505800 0.24707457 0.00722142
0.75993285 0.24327398 0.49198907
0.75737185 0.75548525 0.00531043
0.75305925 0.75319453 0.49763893
0.99737669 0.99398015 0.25633829
0.00993371 0.99890853 0.74915542
0.00766722 0.49784703 0.26111911
0.00838478 0.49552630 0.74936730
0.50422133 0.00771721 0.25609232
0.49348863 0.01258488 0.74003047
0.49137995 0.48902687 0.25154835
0.48717386 0.49460576 0.74458979
0.25382529 0.00552548 0.99701186
0.25064131 0.99613730 0.50127628
0.24103240 0.49193877 0.00318859
0.25594203 0.50003339 0.50096507
0.75254968 0.99207829 0.01260645
0.73913803 0.99877349 0.49712666
0.75923388 0.50253524 0.99334921
0.73730516 0.50065565 0.49717544
0.99869904 0.24105544 0.99717175
0.99477123 0.24418473 0.51298801
0.00273123 0.74901746 0.00999386
0.98910840 0.75329460 0.49700699
0.50909082 0.24621618 0.00414773
0.50216990 0.25204471 0.49264909
0.50010298 0.75390031 0.98930234
0.50717941 0.75605332 0.50218525
0.24260366 0.23598985 0.24732824
0.25674758 0.25659569 0.76055062
0.25403280 0.75174184 0.24363724
0.24988475 0.74899412 0.74737686
0.76165042 0.25405558 0.25596251
0.74595798 0.26338193 0.75122028
0.73401024 0.74016808 0.23747809
0.75045040 0.74715278 0.76165122
Direct configuration=      3
0.95003039 0.09616338 0.03347797
0.10085633 0.08755517 0.49260136
0.01944750 0.47378752 0.11828291
0.01106286 0.40533344 0.58936994
0.52438797 0.03546605 0.88872623
0.55316373 0.93173831 0.43618382
0.49689767 0.57939414 0.89299477
0.42712532 0.48716268 0.40476852
0.28425142 0.38787809 0.27662695
0.16751563 0.48481177 0.66418406
0.24751879 0.91377870 0.14796330
0.33283191 0.02367540 0.82924064
0.85956407 0.52815570 0.24158382
0.75751435 0.56508714 0.64467813
0.67929598 0.09499263 0.25452744
0.72055276 0.89274489 0.71953827
0.09113451 0.33119869 0.25323862
0.89788723 0.25768567 0.73719846
0.00369723 0.66039648 0.16585698
0.91750936 0.84290215 0.75675095
0.45874959 0.34700983 0.29107296
0.50722279 0.32415562 0.64717618
0.41322411 0.75378607 0.33944442
0.58269319 0.73340047 0.82638572
0.16702365 0.49096197 0.33436860
0.32790136 0.49226287 0.83698977
0.15452541 0.92018438 0.25521912
0.27176164 0.88902265 0.78659350
0.63352036 0.45923903 0.23780453
0.75443669 0.41833475 0.83369187
0.64561406 0.94856079 0.20914018
0.77544455 0.11353837 0.75444274
0.08602273 0.15361250 0.26102738
0.09651503 0.16489398 0.75912059
0.88644912 0.71937445 0.22724361
0.99224281 0.79592091 0.86273890
0.61617164 0.28129747 0.24397183
0.51917939 0.20957110 0.85284582
0.54361794 0.63437742 0.27641074
0.52868275 0.86588696 0.71843453
0.88097009 0.48035207 0.47961272
0.91358935 0.57311138 0.02792414
0.99568012 0.08988700 0.59542783
0.98808362 0.96756127 0.89311245
0.56294277 0.42751838 0.43896118
0.38311372 0.47009004 0.98239974
0.43119371 0.05299410 0.42846492
0.59103322 0.08272763 0.00640133
0.91945176 0.16073034 0.23848825
0.98679070 0.32907417 0.84586622
0.97482772 0.83185213 0.33475182
0.08665761 0.83828556 0.73487020
0.52278371 0.30034297 0.13946306
0.57577143 0.19029530 0.69172087
0.58462979 0.75120406 0.33832110
0.40964847 0.75611348 0.66117295
0.33914757 0.33499993 0.46873416
0.18958056 0.17867234 0.06139036
0.36215526 0.78199388 0.48247965
0.26868016 0.85851744 0.96469508
0.86808724 0.20968112 0.54139400
0.84189897 0.24267478 0.08990257
0.82866861 0.66298412 0.49709705
0.67581778 0.69018627 0.06015014
0.03244362 0.22537728 0.36654026
0.02511031 0.25076522 0.64975549
0.11218923 0.73565794 0.27668051
0.91876830 0.73111592 0.66483056
0.38982078 0.21721568 0.22567699
0.41306972 0.33394848 0.77168417