Li192 P32 S160 Cl32
1.0
20.312311 0.000190 -0.000113
0.000190 20.312339 -0.000033
-0.000113 -0.000033 20.312424
Li Cl S P
192 32 160 32
Direct configuration=      1
0.06920725 0.26933781 0.17079116
0.96979075 0.10838049 0.56593711
0.10130234 0.51374884 0.43998743
0.82621396 0.58335948 0.74558269
0.73643556 0.04792163 0.38331996
0.53159952 0.21311828 0.85254179
0.72409873 0.44348686 0.13553559
0.76956045 0.46842969 0.84575052
0.26881999 0.30851424 0.39181316
0.03985006 0.22622294 0.88129398
0.37939615 0.50602170 0.09827039
0.41162997 0.47655324 0.91217491
0.68046349 0.10953568 0.27303115
0.85229045 0.00314867 0.84553700
0.69518618 0.71880414 0.88747474
0.38287389 0.95960651 0.92433225
0.41432733 0.02057362 0.57683653
0.33953146 0.96027724 0.78384860
0.14482086 0.41443790 0.24648456
0.26017545 0.51757885 0.62670768
0.44113397 0.90349723 0.46453251
0.51914627 0.07677051 0.90547016
0.76211732 0.65324186 0.42671823
0.59828312 0.57151866 0.95588521
0.87297334 0.24591160 0.40823926
0.08868297 0.16372105 0.76469959
0.15946758 0.66093158 0.48232657
0.03465387 0.70735932 0.85425759
0.61098705 0.00873046 0.39649218
0.70209442 0.04218975 0.86752226
0.58970118 0.57059300 0.46596792
0.85887062 0.76186511 0.09941968
0.18052174 0.10301327 0.26920263
0.11861077 0.77573676 0.22676019
0.16068400 0.73169301 0.38080469
0.13846637 0.00295642 0.67851689
0.70364101 0.22268583 0.40535310
0.66513868 0.14977553 0.98768627
0.85334376 0.78936410 0.46734681
0.82441534 0.65507960 0.96672512
0.12759029 0.19785354 0.48273153
0.85850558 0.25779700 0.59360982
0.02906406 0.65707052 0.34762028
0.70486692 0.60316199 0.27647618
0.50482986 0.09554045 0.42056531
0.77524605 0.10418253 0.70666074
0.65037407 0.45725188 0.27002471
0.51471362 0.64921813 0.82356668
0.36169995 0.50915914 0.72164470
0.24407975 0.61516150 0.35037116
0.13189173 0.78219498 0.04337203
0.04524362 0.04597847 0.40093210
0.84076942 0.18484052 0.05571749
0.61901900 0.35813569 0.75884392
0.61749470 0.73200819 0.32126041
0.81920724 0.94791493 0.69038199
0.14993394 0.33337158 0.98005340
0.24057227 0.15711973 0.41276698
0.33551429 0.81528413 0.96586637
0.24097793 0.91507491 0.65425539
0.80514332 0.26553446 0.89530714
0.56118539 0.25910460 0.67510972
0.64311292 0.74934886 0.05653772
0.38450275 0.74339839 0.78856476
0.15698845 0.53662002 0.85643154
0.54764895 0.20961656 0.36583450
0.01283903 0.87086020 0.14718967
0.13711963 0.82733569 0.52712890
0.70072029 0.27005522 0.09990996
0.70378231 0.27283659 0.61064635
0.53194995 0.88114461 0.02575291
0.64249908 0.73098837 0.47177583
0.01201429 0.42133307 0.10073054
0.90082852 0.40861957 0.48638353
0.29136816 0.02061026 0.12514354
0.01232120 0.91780282 0.60626136
0.44639671 0.45847048 0.36693505
0.63164252 0.52095093 0.81388501
0.66322739 0.92924793 0.26554227
0.63513593 0.86329901 0.72305782
0.14636463 0.55623699 0.27454713
0.96457519 0.65105665 0.70258464
0.00102432 0.88607328 0.33998138
0.12004806 0.97033662 0.53912450
0.83729006 0.40105443 0.24358600
0.52401318 0.38569226 0.57402278
0.75158297 0.84585064 0.07181377
0.61359414 0.97467500 0.57066881
0.31477391 0.17150987 0.04102875
0.13260383 0.44666710 0.72417599
0.17018310 0.92952534 0.21938598
0.07939344 0.86686670 0.74125018
0.57144531 0.33928667 0.21265476
0.65615976 0.45927824 0.65365732
0.53142406 0.83234805 0.15175543
0.89246154 0.21410066 0.72772852
0.22394977 0.29063217 0.10493648
0.48076625 0.12714153 0.61449123
0.30517376 0.56171034 0.22390824
0.47676558 0.62596777 0.66950187
0.99151119 0.14264249 0.15829518
0.64084415 0.14177034 0.49720410
0.85521784 0.56552440 0.21358386
0.79300950 0.52215370 0.64196051
0.35904597 0.99395867 0.34862178
0.34393268 0.07785441 0.73982431
0.19579499 0.81019364 0.91991426
0.52227577 0.80733231 0.63713081
0.62893360 0.97200649 0.09518364
0.79731854 0.15229894 0.53639489
0.95229787 0.63193514 0.02786008
0.84919599 0.73472216 0.61999178
0.56355240 0.17484334 0.17533741
0.25554504 0.08936567 0.65222933
0.40322383 0.63687951 0.02968530
0.24806206 0.75715275 0.60212038
0.05618789 0.04284672 0.90178370
0.02611271 0.32500395 0.67151281
0.76223874 0.63379174 0.12081822
0.67538921 0.61850130 0.76271314
0.33352510 0.10776154 0.24964386
0.19160965 0.93878921 0.82331170
0.20635959 0.48164751 0.13294688
0.37054918 0.25816854 0.86312350
0.86335363 0.09972808 0.26698481
0.73821282 0.82207981 0.58581879
0.85075997 0.80085812 0.95052576
0.92010657 0.61212724 0.51697051
0.53793279 0.44090324 0.09310982
0.27055866 0.24883936 0.60402142
0.27681302 0.69645489 0.11003499
0.40312867 0.49358276 0.56125592
0.93662437 0.09806437 0.02320970
0.73432407 0.39107811 0.72950888
0.07245284 0.57482138 0.97678134
0.16263944 0.59478233 0.72391865
0.03784973 0.20938410 0.35758595
0.39853366 0.24490257 0.66139337
0.25433646 0.67248635 0.93121364
0.06549749 0.77235259 0.64203678
0.90793994 0.00461751 0.12742665
0.16490913 0.33164303 0.53194963
0.26522132 0.46039236 0.35489813
0.74724271 0.65518336 0.57274167
0.90046243 0.52868660 0.08813557
0.44194021 0.36243559 0.77867580
0.34954762 0.63020282 0.50036959
0.10412790 0.93324165 0.03557562
0.78168506 0.46796168 0.35309925
0.20677708 0.24702059 0.88169237
0.79384834 0.07796514 0.16301826
0.91850970 0.95034266 0.96568141
0.33142968 0.39731040 0.24452796
0.30474706 0.34259825 0.95858564
0.28590874 0.86874500 0.48396949
0.49716132 0.86585172 0.84250713
0.69012542 0.36344215 0.52965859
0.84362914 0.33402312 0.00936867
0.92700006 0.91735032 0.48775057
0.91727009 0.83229881 0.76346429
0.33942823 0.17118780 0.51950213
0.16161049 0.17854076 0.98360927
0.29101778 0.78770562 0.37920899
0.89143746 0.48001813 0.94491656
0.94707407 0.51054272 0.60780226
0.66989792 0.32492210 0.98470169
0.83285191 0.89639418 0.25879801
0.67215005 0.84551145 0.97162113
0.36815797 0.30976227 0.45886136
0.42162927 0.26359199 0.17326263
0.25624461 0.94225292 0.34886446
0.40054345 0.70814347 0.18383646
0.77475099 0.34370412 0.42824549
0.96365800 0.36870241 0.81681963
0.90320941 0.76480500 0.32822472
0.76624380 0.90333811 0.84560093
0.22989919 0.39576169 0.67093355
0.27387198 0.42232044 0.81259681
0.47118952 0.83529267 0.32969090
0.46403183 0.06513758 0.10012471
0.97011623 0.35683119 0.29535406
0.88964206 0.22102365 0.21141389
0.76175858 0.84329167 0.40320386
0.86258107 0.99038324 0.35766691
0.47633743 0.62195645 0.19527875
0.46236364 0.36055188 0.94745370
0.34216681 0.90468207 0.24533578
0.21154067 0.09930212 0.82170777
0.91877005 0.47256093 0.38728192
0.96892259 0.67810198 0.17081329
0.23789802 0.84011062 0.09546998
0.64726453 0.00748321 0.71747202
0.35713682 0.58397232 0.61677024
0.10997972 0.62238374 0.88484000
0.63900524 0.88221355 0.61985304
0.86991517 0.37631605 0.89638206
0.36298206 0.11816599 0.13381100
0.36525742 0.36747989 0.34385181
0.65182127 0.63542510 0.38951862
0.13977870 0.36609323 0.12587242
0.12311069 0.37498296 0.62769141
0.62688414 0.63057699 0.85819074
0.87649547 0.89597807 0.86967355
0.12241033 0.13320934 0.38326967
0.62209243 0.11706294 0.88563044
0.62838912 0.37020350 0.10691166
0.87416618 0.14049122 0.62881067
0.37960294 0.86848157 0.85271062
0.99956559 0.99892579 0.00705451
0.01008509 0.99155943 0.50809082
0.98945033 0.50730295 0.01723152
0.97076089 0.50074213 0.49361000
0.49578105 0.97316924 0.97829800
0.50031555 0.99823094 0.48723219
0.48099130 0.47336152 0.00709087
0.48559134 0.47058954 0.48317509
0.99326399 0.23597157 0.26312545
0.00516956 0.26760274 0.77098043
0.00837413 0.76187453 0.25423608
0.01403640 0.75309438 0.74559960
0.51727792 0.23442862 0.24646016
0.48311712 0.25827682 0.76079935
0.50573541 0.74689251 0.22508106
0.49183478 0.72387212 0.73237112
0.27710900 0.00844297 0.24993887
0.24328627 0.01187649 0.73971414
0.23397895 0.48545303 0.25773463
0.23613548 0.50058027 0.74528722
0.77673497 0.00504450 0.26746256
0.75119404 0.99394575 0.77031318
0.75678749 0.49367663 0.23870012
0.73013534 0.50424047 0.74171798
0.23734443 0.25775032 0.99563740
0.26079547 0.24297196 0.49062666
0.24796255 0.75530457 0.00572733
0.22330029 0.76546265 0.48157955
0.75057141 0.25299301 0.00890949
0.76232261 0.25162109 0.51359981
0.74820206 0.74997464 0.99527054
0.75561627 0.74890643 0.50415507
0.45371773 0.19906837 0.44209534
0.42835251 0.18310642 0.92885594
0.42585264 0.68930175 0.44053845
0.43079343 0.69817914 0.92075048
0.94840075 0.17955601 0.46494840
0.92507923 0.20622078 0.97132485
0.93870926 0.70257282 0.43891208
0.93744265 0.71028318 0.92379729
0.20836349 0.06458896 0.03577504
0.17784816 0.07682144 0.54757225
0.17796071 0.57830092 0.05085534
0.18721847 0.55806736 0.53641292
0.70931236 0.05484469 0.07692563
0.69995077 0.05681839 0.56628362
0.68280877 0.56902254 0.05673542
0.68876762 0.55161810 0.55939428
0.30558305 0.06248988 0.44088614
0.30207811 0.04548805 0.89199725
0.31572493 0.53938598 0.43889765
0.31161969 0.56500457 0.95775460
0.82632439 0.04877462 0.45415159
0.82340227 0.06225892 0.95908853
0.81525642 0.54670654 0.43887342
0.80290515 0.55424234 0.91394532
0.05552104 0.19746552 0.07067312
0.05488130 0.20521432 0.58094548
0.05336436 0.69840473 0.04373445
0.04988484 0.69525499 0.55907162
0.53705700 0.14856540 0.04720946
0.56661604 0.19478876 0.57743298
0.55932086 0.67540983 0.01149575
0.55300268 0.69179287 0.55562028
0.10937332 0.14415768 0.88066837
0.13655170 0.60603380 0.37700132
0.62467986 0.12391937 0.38697495
0.43675313 0.43301005 0.16743457
0.45202726 0.44108026 0.68035482
0.44926270 0.93984789 0.17707514
0.44368177 0.91924014 0.67294169
0.93819746 0.45412951 0.18837895
0.94186642 0.42493718 0.70734414
0.95934271 0.94195359 0.21502316
0.94672816 0.93793143 0.70902771
0.19182988 0.32274601 0.29716958
0.19359994 0.32611611 0.80807900
0.19479138 0.80475039 0.29639223
0.17144808 0.82281397 0.79795549
0.66803745 0.31104983 0.29924257
0.70443122 0.30541165 0.81770808
0.69978827 0.81938225 0.29817281
0.70703989 0.81359786 0.82236183
0.31520581 0.30742178 0.18965454
0.31479937 0.31721706 0.70275430
0.30620878 0.80348581 0.17807491
0.29984179 0.80460963 0.69900926
0.79849943 0.30395536 0.18980347
0.82271734 0.30346898 0.71255634
0.81338974 0.80379820 0.18729784
0.81893291 0.81279583 0.69992300
0.03960506 0.45470906 0.31709143
0.05032555 0.45923681 0.82347817
0.09225178 0.95541581 0.31418389
0.07797035 0.96504389 0.80343283
0.53298938 0.41445553 0.30532702
0.54251564 0.43866953 0.82079233
0.55709218 0.93312819 0.31194101
0.57285078 0.94567699 0.77842739
0.13141562 0.86119968 0.14263951
0.11756163 0.88364262 0.63197697
0.62327012 0.35756523 0.64571711
0.63126215 0.85987157 0.09494028
0.18727025 0.19716831 0.19091373
0.18647176 0.20799960 0.68128010
0.18496702 0.68165665 0.19309326
0.15886628 0.70897220 0.68648411
0.69505167 0.19222787 0.18510332
0.69738237 0.19494320 0.69610080
0.68846429 0.68875603 0.19788620
0.68389391 0.73053973 0.68051863
0.44797837 0.04158282 0.30991904
0.44463265 0.04567102 0.78727451
0.43042776 0.54303739 0.29429952
0.42758541 0.55343907 0.80204663
0.96350526 0.06364725 0.31554788
0.94936662 0.05715470 0.82589191
0.93562386 0.57723662 0.29831278
0.92982291 0.56809021 0.79778307
0.07435105 0.06230434 0.18923137
0.04024741 0.06754203 0.68268390
0.06067419 0.56291734 0.19031823
0.04211265 0.55435101 0.67740263
0.57593898 0.04125311 0.18893752
0.54510816 0.04719246 0.65719876
0.56788585 0.52825227 0.19424752
0.57088067 0.54820086 0.69636873
0.29953225 0.19605394 0.31463941
0.29436576 0.19361056 0.81030506
0.31554309 0.69338295 0.29043173
0.27631136 0.68393468 0.80301974
0.79312443 0.19912111 0.31784169
0.80272945 0.17340468 0.81536745
0.81085380 0.69147624 0.31929702
0.78666441 0.67585092 0.80492922
0.36387667 0.13389493 0.62325658
0.36651075 0.62092508 0.13200299
0.88754470 0.13066331 0.14116200
0.87302251 0.63278399 0.11303353
0.86568560 0.61700359 0.61854629
0.18938206 0.42653175 0.44346110
0.18259200 0.46159309 0.93552615
0.18497541 0.94811640 0.45018573
0.16262894 0.95360720 0.93247877
0.69019069 0.43806905 0.42696266
0.68132441 0.45189760 0.93775881
0.69769427 0.93916602 0.45039657
0.70745801 0.94757918 0.94882475
0.43267184 0.28867960 0.05138645
0.44447673 0.30568905 0.57282164
0.45121708 0.80458783 0.03427744
0.43067102 0.80709686 0.54706633
0.94049047 0.30896145 0.10184692
0.95197123 0.31944852 0.54940157
0.93619305 0.81840193 0.04671743
0.94213575 0.81727725 0.55564181
0.07096838 0.29065964 0.43688765
0.04307309 0.31873728 0.95670309
0.06065237 0.80443650 0.43322030
0.06545584 0.82689841 0.94894666
0.57444745 0.32068597 0.46838653
0.56396949 0.27523669 0.95068088
0.55182950 0.79851009 0.41798705
0.57194337 0.80674013 0.92078392
0.28500090 0.43610166 0.05816364
0.29931984 0.43062158 0.56533361
0.30411034 0.93396834 0.02512924
0.31086882 0.95573314 0.55890999
0.81363900 0.45862297 0.05003089
0.79916231 0.41747557 0.55487378
0.82844748 0.92938370 0.05782801
0.81830596 0.92446415 0.56109981
0.37657303 0.37166897 0.87042531
0.37141623 0.88528313 0.36624347
0.87095389 0.37280407 0.36600212
0.87269918 0.88072729 0.37603588
0.24867363 0.00267301 0.96790836
0.24304868 0.01282887 0.50255893
0.23894983 0.51056901 0.00069561
0.24642517 0.49205102 0.49429167
0.77182755 0.99951834 0.01559937
0.75900296 0.98957907 0.51164504
0.74185796 0.51223946 0.99419334
0.74385569 0.49027765 0.49353776
0.24775738 0.25413497 0.25280133
0.24231760 0.25813272 0.75028945
0.24778673 0.74122484 0.23821088
0.22750915 0.75537758 0.74829405
0.73795555 0.25583756 0.25550798
0.75476040 0.24329276 0.75965309
0.75265700 0.74477806 0.25193784
0.74825596 0.75690392 0.75291250
0.02548689 0.00657916 0.25520350
0.00619019 0.00479364 0.75750573
0.99698414 0.51311587 0.24733189
0.99515529 0.50616097 0.75474509
0.50766818 0.98837889 0.24381779
0.49422567 0.98925040 0.72324949
0.48909955 0.48023880 0.24156712
0.49995586 0.49627893 0.74782533
0.99301364 0.26094913 0.02420273
0.00548641 0.25183095 0.50237399
0.99827156 0.76004604 0.99148327
0.00044350 0.75365308 0.49611622
0.48654123 0.22673628 0.00182003
0.51081142 0.25412416 0.51361107
0.50558405 0.75138284 0.96874687
0.48462105 0.74258827 0.49235569
Direct configuration=      2
0.08312277 0.25853081 0.17397181
0.97486853 0.10290689 0.57865773
0.09796126 0.52896669 0.39674985
0.83479392 0.58861798 0.75271011
0.73316886 0.04827680 0.36852625
0.55295597 0.22247874 0.86267810
0.68666021 0.47849137 0.14227691
0.76480133 0.39856306 0.83750542
0.30610304 0.27867342 0.37890160
0.03411457 0.21881412 0.87352499
0.40553806 0.50028685 0.07835303
0.39968530 0.49769045 0.89056844
0.66527238 0.11237436 0.28166997
0.84412861 0.04105666 0.83454712
0.72310671 0.67547461 0.88608994
0.38534492 0.97793461 0.95040395
0.37162781 0.01694889 0.64861878
0.35609753 0.92573180 0.74626273
0.16932411 0.41777804 0.27730585
0.26414813 0.55533356 0.63540686
0.44556702 0.88131097 0.45186517
0.51629322 0.07178739 0.88032521
0.75885748 0.67234527 0.41109855
0.56983132 0.57475946 0.96446342
0.86685057 0.25512524 0.37711579
0.09649508 0.17140162 0.76260300
0.15155172 0.65726077 0.48758245
0.06598152 0.76089766 0.84296776
0.57998632 0.96695688 0.38894210
0.69967335 0.04615927 0.84044666
0.59992439 0.58122514 0.46785104
0.86028385 0.74161171 0.10496268
0.17083227 0.07777514 0.28529254
0.10684173 0.80121882 0.20929954
0.16164090 0.76424873 0.39833001
0.12762344 0.00083645 0.70638329
0.67398735 0.23183743 0.40569967
0.65533286 0.19451458 0.00515417
0.86621156 0.79857437 0.46933097
0.82520137 0.69312992 0.98532528
0.16232975 0.17427692 0.52036471
0.82587942 0.28079118 0.58328996
0.01833151 0.67594643 0.34513550
0.71154560 0.59829444 0.29228973
0.51774773 0.10967815 0.41629306
0.77404369 0.10201018 0.70531818
0.65365504 0.45899442 0.28636397
0.53230497 0.66384796 0.79725189
0.34990054 0.51368867 0.73345746
0.22029642 0.57027871 0.35622358
0.14760419 0.75554199 0.08229659
0.08206828 0.01469430 0.40965559
0.80682943 0.13985354 0.03570500
0.59387305 0.35451877 0.74222090
0.59848911 0.73155646 0.28124396
0.81502728 0.94214547 0.67467487
0.14704795 0.34572650 0.01828141
0.23979746 0.16944260 0.39330308
0.34269450 0.79300446 0.97654937
0.22588087 0.91514354 0.66100073
0.76628574 0.25985587 0.90440034
0.58579933 0.23644151 0.68007065
0.63920885 0.75882048 0.09060226
0.36795111 0.77418685 0.78286348
0.15847927 0.53556462 0.84143282
0.54421872 0.23539041 0.37230978
0.01871646 0.89767930 0.09709054
0.16145648 0.86271949 0.51489351
0.72602229 0.29653048 0.11041192
0.67375370 0.23105411 0.59719638
0.52998991 0.89236554 0.01738729
0.63648698 0.77423456 0.48305887
0.01398747 0.42143936 0.08482054
0.91579791 0.39801094 0.49689318
0.28742091 0.02762482 0.15317121
0.00587018 0.93189706 0.60627478
0.44680438 0.45561095 0.37366948
0.65093961 0.51648249 0.83154606
0.66824367 0.95512420 0.21914564
0.60725466 0.84332274 0.73836311
0.15825593 0.60491166 0.25711439
0.94806530 0.63622350 0.69337447
0.99997143 0.83997317 0.34621655
0.11327669 0.99146739 0.54877794
0.83879462 0.40262177 0.25281025
0.51681273 0.40219932 0.58713765
0.74857222 0.85581116 0.10246144
0.58645129 0.97841303 0.55703016
0.28790305 0.16273817 0.04814064
0.11212013 0.46136974 0.71726718
0.14637814 0.93598909 0.19427296
0.07618945 0.86181124 0.73059234
0.58435060 0.31418013 0.24262325
0.63682137 0.48441989 0.66729817
0.54384164 0.86161201 0.18603503
0.91295287 0.17973336 0.72635617
0.20463261 0.27542133 0.11279081
0.48714743 0.12873079 0.63568266
0.33895844 0.58421593 0.22368684
0.45524419 0.62437635 0.67940069
0.00465596 0.13906689 0.18866426
0.66188039 0.13029275 0.48760913
0.83896069 0.58036546 0.23251299
0.77731864 0.52033983 0.64901510
0.38257997 0.99569417 0.37362463
0.33562333 0.09280071 0.75324270
0.18044106 0.83398325 0.93864271
0.50789077 0.77771896 0.63513544
0.60839262 0.99511950 0.08275746
0.80252608 0.15105799 0.53159077
0.94114801 0.61437802 0.01042034
0.85579683 0.73762144 0.60178450
0.57427884 0.18544328 0.18157019
0.24997241 0.10825083 0.67156615
0.37491410 0.66202365 0.00534466
0.23572468 0.77913342 0.59208025
0.07527680 0.03987357 0.88053910
0.01663302 0.34936068 0.64627360
0.76623808 0.64124733 0.10674127
0.70588436 0.60583117 0.76572196
0.34231219 0.06687083 0.25620150
0.23973420 0.93468676 0.83086799
0.21278321 0.47092084 0.15177960
0.39006951 0.24915573 0.87943696
0.87600598 0.04849912 0.24513051
0.73094860 0.82136897 0.60219258
0.85451191 0.80312757 0.96483684
0.89697813 0.59313043 0.53017631
0.54667709 0.42710630 0.08833856
0.28638010 0.22466833 0.61371257
0.25311185 0.65101714 0.08459452
0.40035809 0.51737991 0.54200197
0.96325907 0.11023321 0.05065316
0.74273461 0.38496055 0.69829346
0.10657917 0.58310028 0.99244430
0.14662212 0.60201217 0.72154114
0.04046176 0.20443781 0.36560712
0.39656031 0.23588699 0.68567521
0.20600651 0.67794263 0.90648343
0.06715706 0.76219789 0.64780596
0.91103014 0.99475288 0.10752112
0.17987240 0.34607488 0.50678076
0.27354047 0.44830800 0.34931818
0.75190762 0.65403337 0.57491117
0.86649235 0.51153819 0.11237114
0.40938513 0.36877837 0.77610852
0.35075922 0.64919940 0.49998641
0.10051497 0.93279711 0.01795609
0.77580862 0.46539834 0.35354541
0.21623563 0.24057519 0.88827863
0.78722638 0.08826196 0.18144561
0.91151752 0.93976188 0.96524223
0.33080066 0.40507890 0.21675716
0.31699834 0.32389215 0.00725976
0.29810204 0.86282655 0.48272179
0.47833098 0.87400849 0.85580242
0.66340770 0.36063421 0.52302692
0.85557586 0.30671530 0.99777230
0.89714735 0.93987975 0.48155928
0.91680368 0.81956297 0.78543758
0.34289082 0.16177856 0.51111440
0.13769196 0.17335624 0.97967354
0.33905260 0.75582320 0.40720756
0.89062624 0.48094033 0.94416008
0.97863525 0.49981669 0.60752170
0.67990315 0.36166625 0.01329279
0.80899693 0.89968824 0.28412321
0.67733861 0.84679221 0.98469645
0.33936238 0.34002542 0.51878932
0.40295241 0.21148868 0.16089169
0.24697007 0.91869279 0.34314684
0.37693423 0.71424570 0.19388611
0.79030039 0.35571365 0.45841007
0.95371731 0.36660574 0.80540968
0.89127813 0.76659374 0.30692284
0.77160229 0.91428148 0.83557031
0.23845522 0.41314874 0.67012807
0.26074726 0.40875751 0.85447429
0.45970692 0.83103158 0.33430590
0.46015881 0.06408370 0.08615002
0.97096795 0.36117858 0.29231712
0.89642115 0.22919921 0.15441546
0.77244650 0.85195652 0.41433074
0.88228296 0.97469314 0.34597930
0.49224968 0.59994508 0.14918430
0.45945533 0.36666260 0.97683302
0.34270898 0.90546139 0.25058104
0.21513895 0.07563013 0.82860826
0.93049734 0.48667035 0.38236751
0.98318310 0.64713283 0.17422669
0.23553526 0.84549169 0.07334404
0.67642739 0.97810418 0.69347237
0.36259506 0.60364936 0.61495987
0.11886853 0.63545677 0.88925742
0.62571401 0.88533092 0.63159788
0.86187401 0.37781141 0.89576829
0.37339614 0.10968177 0.13492747
0.36524752 0.37186683 0.37745737
0.65936859 0.62189782 0.38631989
0.11862137 0.37476420 0.13048401
0.12637825 0.38432932 0.63092749
0.61938969 0.62096599 0.86161874
0.87624725 0.88700535 0.86865852
0.14500452 0.11340611 0.39584027
0.62378093 0.13478998 0.88074975
0.64440143 0.36736643 0.12676590
0.87420438 0.13698077 0.62099706
0.36744971 0.86605347 0.85982809
0.00490980 0.98270810 0.02418426
0.99805738 0.99835624 0.51260954
0.98090529 0.50050368 0.02313115
0.97824714 0.50048371 0.49952187
0.48588297 0.01200136 0.99876625
0.50709569 0.00027626 0.46425626
0.49634547 0.48690674 0.99124901
0.49174471 0.48011267 0.50003196
0.99918866 0.24745753 0.25046228
0.98070282 0.26527176 0.77235720
0.99495490 0.74352627 0.25250107
0.99952406 0.75245131 0.74699061
0.50106718 0.22939742 0.24535720
0.50198862 0.26056204 0.76110622
0.49459382 0.77256924 0.24547193
0.45226276 0.73023342 0.72706902
0.25306860 0.98546269 0.25305196
0.25887675 0.01068803 0.72504141
0.25044516 0.50388364 0.26412037
0.22285229 0.50660496 0.73709320
0.77235404 0.01117263 0.26302562
0.75994702 0.00433422 0.75888524
0.74423831 0.50514064 0.24830559
0.74929452 0.49752670 0.75385417
0.21954453 0.25349342 0.00170177
0.26013563 0.25414210 0.49336919
0.23927583 0.74652003 0.98956822
0.24548473 0.75491664 0.49074115
0.74865951 0.25805325 0.00738085
0.74226931 0.24901429 0.49603628
0.75784198 0.76963293 0.01430905
0.75386078 0.75863708 0.50690269
0.45162398 0.19953898 0.44587360
0.45326049 0.16148443 0.93091601
0.42694780 0.66803653 0.42200895
0.43758831 0.68457814 0.90825929
0.94856106 0.19651612 0.44724807
0.93451719 0.19526721 0.96699786
0.93268341 0.70445093 0.43289085
0.93271248 0.70918656 0.92249525
0.21681602 0.06435178 0.05298479
0.19564912 0.06785922 0.55733912
0.19351066 0.55323200 0.06800018
0.18833743 0.56179056 0.55013816
0.69966058 0.06802337 0.05398656
0.70780825 0.05459912 0.56796140
0.68448229 0.57755934 0.03762443
0.68647025 0.55035092 0.55711666
0.31082118 0.07246438 0.43713288
0.30699952 0.05053259 0.91457527
0.31272348 0.53969194 0.43531213
0.30197188 0.56733866 0.94528179
0.82393879 0.04506342 0.44101962
0.83981480 0.05692063 0.94992976
0.80963905 0.56248037 0.44388760
0.80677933 0.56956405 0.93465292
0.05120871 0.18132644 0.07068920
0.06160257 0.19495871 0.57828146
0.02832153 0.68669245 0.05231314
0.03165910 0.69107477 0.55853990
0.54358138 0.16086864 0.06813096
0.56536791 0.19130488 0.57171946
0.54798555 0.68783987 0.02711429
0.56218036 0.69433838 0.53855948
0.11522457 0.14132658 0.86503204
0.12973204 0.63998543 0.37714297
0.62146636 0.11187051 0.38767585
0.43573488 0.41800717 0.17015467
0.45408811 0.44150434 0.67741181
0.45111139 0.95356820 0.17978818
0.45037060 0.91312273 0.67864244
0.93226507 0.44568221 0.19614152
0.92869154 0.44197216 0.70003143
0.96786932 0.94371459 0.19938596
0.94730999 0.93338467 0.71763553
0.18974617 0.29598046 0.31676402
0.19391108 0.32238153 0.80610780
0.19698619 0.81746538 0.29642909
0.17346947 0.81822605 0.80824701
0.68529525 0.29403582 0.30929856
0.69671755 0.31127789 0.80677942
0.70530164 0.81203243 0.31505282
0.70131951 0.81137712 0.80948532
0.30048257 0.28733699 0.18021196
0.31409304 0.31859269 0.68479190
0.30126500 0.79671270 0.16666162
0.29155614 0.81428965 0.69111333
0.80559306 0.30719614 0.19300111
0.81187551 0.30311016 0.68674992
0.82627358 0.80079975 0.20689097
0.82895950 0.81269568 0.68593791
0.05172557 0.43902898 0.30806481
0.04321742 0.45333823 0.82205296
0.07902668 0.93129428 0.32052980
0.07436438 0.96572154 0.80053576
0.53533008 0.41141658 0.30397614
0.55287631 0.43958331 0.81584290
0.55695716 0.92723999 0.28871484
0.57165958 0.93949678 0.79379555
0.12694947 0.86866216 0.10247320
0.11731095 0.88617743 0.62505179
0.63834028 0.36698571 0.64070985
0.61852363 0.87765738 0.09996601
0.18394488 0.18075785 0.19202539
0.17831306 0.21783466 0.68330286
0.17619887 0.70025797 0.19342013
0.17808288 0.71040348 0.67716353
0.69635655 0.18239513 0.19265690
0.69015678 0.18514822 0.70358216
0.68422273 0.70075819 0.19765160
0.69119156 0.71437547 0.68183259
0.46024924 0.07627381 0.29373284
0.44466898 0.03895921 0.78794120
0.45006447 0.54886064 0.28090774
0.43698419 0.56306256 0.79601587
0.96799585 0.05666670 0.32168438
0.95283707 0.07357016 0.82696454
0.95323658 0.57423468 0.30036638
0.92550358 0.56051675 0.81768380
0.09010311 0.04696474 0.20862330
0.03215603 0.07670929 0.68499065
0.06203021 0.54628460 0.18249769
0.04194215 0.55342103 0.69320636
0.58568521 0.05267616 0.19485243
0.55903366 0.03487808 0.66179564
0.56695908 0.51824849 0.17661977
0.56710911 0.57169118 0.70827590
0.30780125 0.18040821 0.30109555
0.30511620 0.19247142 0.80909410
0.30144682 0.68991650 0.28779558
0.28026154 0.69313132 0.80999687
0.81168307 0.18466343 0.30413348
0.82273391 0.19310289 0.80852390
0.81065073 0.67631493 0.29906434
0.80709323 0.69229317 0.79893313
0.36800820 0.14204002 0.62430021
0.37676635 0.61170194 0.11101761
0.89057664 0.11105417 0.13361997
0.87300702 0.62961025 0.11581820
0.85019768 0.61490041 0.62997471
0.18363565 0.44312919 0.43037716
0.17786883 0.46761633 0.93327226
0.19125173 0.94816156 0.44341852
0.17068944 0.95563181 0.92792951
0.69842149 0.43365338 0.43558810
0.67755591 0.46202736 0.92883449
0.69524007 0.94248433 0.43667143
0.70540963 0.96113541 0.92920754
0.42104649 0.26997552 0.05732627
0.45715409 0.31475583 0.57953717
0.43370517 0.78570252 0.03953065
0.42364652 0.78591672 0.54597932
0.95238578 0.30812478 0.09205740
0.95209634 0.31081536 0.56306023
0.93752918 0.81798924 0.05556719
0.93275498 0.81548818 0.55453407
0.07357522 0.29689946 0.44649392
0.05475109 0.31469703 0.95808891
0.06112582 0.82189454 0.44712819
0.05863969 0.81449243 0.94603374
0.57395152 0.30642871 0.45689870
0.55414416 0.28672707 0.96004724
0.53580838 0.81350329 0.42800511
0.55230586 0.80981439 0.90996611
0.29060309 0.43525989 0.06587029
0.29343224 0.43440612 0.56413671
0.31141687 0.92583950 0.02687869
0.30143330 0.94667821 0.55788719
0.78465455 0.44337665 0.05386375
0.81640648 0.43118728 0.55816282
0.81685327 0.94028777 0.06076818
0.80017329 0.93464707 0.55397216
0.37347375 0.37590224 0.89540790
0.35908787 0.88130058 0.37533504
0.87147231 0.38834570 0.36773503
0.87670885 0.86551093 0.37196086
0.25137487 0.99687270 0.98206524
0.25837068 0.00944521 0.49782625
0.24872904 0.50147438 0.00028807
0.24435953 0.49474808 0.49707982
0.76157254 0.00775420 0.00087709
0.75514086 0.00093952 0.49564593
0.74286505 0.51481443 0.99263746
0.75879964 0.49754403 0.50175779
0.24211196 0.24103205 0.24830209
0.24908743 0.26241620 0.74805789
0.24859500 0.75530550 0.23748883
0.23104815 0.75419727 0.74986457
0.74996559 0.24321350 0.25096602
0.75851702 0.24287841 0.75449333
0.75374013 0.75064899 0.25261116
0.75923597 0.75682939 0.74033844
0.02317150 0.99643678 0.26373863
0.98983751 0.01807895 0.75657446
0.99894096 0.50178661 0.24953255
0.97774974 0.50286158 0.75976151
0.50896049 0.00598528 0.24404812
0.50715051 0.97847288 0.72853400
0.49687407 0.47587379 0.23254713
0.50495888 0.50150057 0.75102725
0.99509625 0.25564891 0.01861521
0.01428930 0.24777682 0.50806592
0.99231800 0.76068157 0.99100836
0.99580786 0.75950082 0.49574799
0.49506773 0.21831817 0.00251403
0.50413980 0.25501209 0.51158110
0.49053277 0.74081160 0.97006581
0.48875036 0.73436517 0.47814566
Direct configuration=      3
0.06973092 0.27433225 0.18280524
0.96804122 0.09909091 0.58099874
0.08552465 0.53780584 0.41952270
0.83434759 0.58483038 0.75225471
0.73233457 0.03165950 0.37918095
0.57874896 0.25999398 0.84850040
0.70040902 0.48220850 0.14170691
0.78473549 0.46431336 0.84091925
0.30003866 0.28217112 0.39014898
0.02749744 0.19367003 0.87642113
0.40782535 0.50698530 0.08300805
0.37903812 0.47158851 0.93192538
0.69639976 0.10279008 0.28089252
0.82765899 0.07008251 0.80647495
0.72006140 0.68440871 0.92721383
0.40203305 0.97470397 0.94825218
0.35250882 0.01690799 0.64329677
0.37540799 0.96264478 0.77994404
0.16547629 0.40489642 0.30683403
0.24958792 0.57143323 0.64921605
0.43648252 0.87268731 0.47244296
0.52244382 0.07682298 0.91426683
0.73030958 0.67118400 0.41508365
0.60109157 0.56612119 0.96207193
0.87714195 0.26126785 0.36761292
0.10523696 0.16240495 0.75861156
0.15640614 0.67085606 0.47367091
0.07276494 0.73669532 0.83736768
0.59830292 0.00820048 0.37042604
0.67412872 0.03962499 0.82141476
0.60825303 0.59092125 0.49189627
0.91252507 0.73460906 0.13944100
0.19944871 0.08362858 0.26651908
0.10096649 0.79670464 0.21464831
0.16387520 0.74276656 0.38164709
0.14418323 0.99788286 0.71990720
0.72000376 0.20615171 0.38371526
0.64920661 0.17991897 0.98679246
0.85896542 0.77137299 0.45174981
0.82678707 0.67272381 0.02173209
0.15625950 0.18273195 0.47923260
0.85099220 0.25185480 0.57645578
0.01443738 0.65835280 0.33651329
0.70168431 0.59715135 0.27998696
0.54071936 0.11435321 0.44835571
0.75658251 0.10328964 0.66343376
0.66258106 0.46410568 0.31956532
0.52039049 0.64454897 0.85309201
0.33392141 0.51781030 0.77350678
0.24392236 0.60128358 0.34507486
0.13870565 0.76636981 0.06382509
0.06052654 0.02042521 0.39052704
0.81765122 0.15452997 0.00135935
0.59480744 0.36568290 0.74022956
0.58115721 0.73693126 0.32819183
0.82104459 0.94068869 0.66689370
0.15854169 0.32318637 0.02849169
0.25956865 0.13925442 0.39968516
0.32457417 0.82610385 0.97392263
0.23717351 0.90390791 0.65300738
0.74985645 0.27510763 0.88591606
0.57884940 0.25496615 0.64454115
0.63022986 0.77688434 0.07417487
0.37789525 0.77367395 0.78336950
0.16141464 0.48638941 0.84330764
0.52606510 0.19793281 0.35509526
0.00832236 0.89344733 0.12852961
0.15447170 0.84712350 0.51995414
0.71969393 0.29356413 0.12925621
0.70281955 0.26792262 0.59364399