Li192 P32 S160 Cl32
1.0
20.312311 0.000190 -0.000113
0.000190 20.312339 -0.000033
-0.000113 -0.000033 20.312424
Li Cl S P
192 32 160 32
Direct configuration=      1
0.09647295 0.26629040 0.17808715
0.97721255 0.09410401 0.58299069
0.10335047 0.51992671 0.40477863
0.84308290 0.57966041 0.74906213
0.72841330 0.04689055 0.36982373
0.54341108 0.22009229 0.85174826
0.71821744 0.45054275 0.13753667
0.77749676 0.42893814 0.82890720
0.27158433 0.29010812 0.38400949
0.03355753 0.21136767 0.87970133
0.40114360 0.51091624 0.09083285
0.40687538 0.49050363 0.90907444
0.66125278 0.08517434 0.26266344
0.85541618 0.00743883 0.83598683
0.70607365 0.72143037 0.89923565
0.38633834 0.96540354 0.95397950
0.35119757 0.00790003 0.64168453
0.36010266 0.95121968 0.78070353
0.15581333 0.41434913 0.25591607
0.26837402 0.54708394 0.64123857
0.45402808 0.89878950 0.45488025
0.52131552 0.07900928 0.91208131
0.73414725 0.67245332 0.42181945
0.59034539 0.58108166 0.97821422
0.85259584 0.26666974 0.40447645
0.09579028 0.15598983 0.75859583
0.15754125 0.65594811 0.48747318
0.01946794 0.69016307 0.85440515
0.59744238 0.00186233 0.39926120
0.71586800 0.05798203 0.86186368
0.58207921 0.59024457 0.48014835
0.84396226 0.74022400 0.09784007
0.17401084 0.08065408 0.25968833
0.09990273 0.78990000 0.21080240
0.16576720 0.74054238 0.38995846
0.14113507 0.98525696 0.69893894
0.71107576 0.20981640 0.39288812
0.66399178 0.16645086 0.98907180
0.86015938 0.78075025 0.46137313
0.78695563 0.64135664 0.02169190
0.14486203 0.19070230 0.49369514
0.85538875 0.25497299 0.56747466
0.02288336 0.66292723 0.34449182
0.70583816 0.61251674 0.28837670
0.50667768 0.10118723 0.40313048
0.77075364 0.11205581 0.70554829
0.63430742 0.49165544 0.26519982
0.51607861 0.66047039 0.82831518
0.34468302 0.51549903 0.76427272
0.24112806 0.59582432 0.35046953
0.14176871 0.75462910 0.07098649
0.08456224 0.01583416 0.40128343
0.83337391 0.16480502 0.02400525
0.59759292 0.36275015 0.74080805
0.58359630 0.73487799 0.32759326
0.82217042 0.95494484 0.68207162
0.15798688 0.33110969 0.01045872
0.24122612 0.15161377 0.40244698
0.35246463 0.79144037 0.96957790
0.24004970 0.90467011 0.65566943
0.75317350 0.25458861 0.88154401
0.58347962 0.26625453 0.64783980
0.65372183 0.75050322 0.09050776
0.38754587 0.77881558 0.78208699
0.15776385 0.50149415 0.84787867
0.57652262 0.22482270 0.34335514
0.01229011 0.88405939 0.11227619
0.16541964 0.83698589 0.51509184
0.72830608 0.27110973 0.10810416
0.71285887 0.29464485 0.58772197
0.53943209 0.88733934 0.03076224
0.62917459 0.77780472 0.51090003
0.01618183 0.41338799 0.10110358
0.90253595 0.40616071 0.49110837
0.28746061 0.01600183 0.13372284
0.00907444 0.90253547 0.60456993
0.45733785 0.44122487 0.38671617
0.65387640 0.50865776 0.83289200
0.66934541 0.91493543 0.23448084
0.60829089 0.80767782 0.72269076
0.14847865 0.59136904 0.25670506
0.96938841 0.64812002 0.70111432
0.99033702 0.85583144 0.35733987
0.11318234 0.97164579 0.54971856
0.82778889 0.41156815 0.25719162
0.50649771 0.40988096 0.60784312
0.74972674 0.85335284 0.09908223
0.59785963 0.97546782 0.56772794
0.30633267 0.14142518 0.01008496
0.12330989 0.45579615 0.70460492
0.16479567 0.92457304 0.21828737
0.08592325 0.84868882 0.73935602
0.58754848 0.33252368 0.22648734
0.64167352 0.49902035 0.65765388
0.52604018 0.84231870 0.16561175
0.89870882 0.22047607 0.71273142
0.25578775 0.24834560 0.10357188
0.47532130 0.09641715 0.59529179
0.32908312 0.57701678 0.22288507
0.47499183 0.65790847 0.64407194
0.98370098 0.13362456 0.20864740
0.63961810 0.13567298 0.49349171
0.84336686 0.59268763 0.23867556
0.78837365 0.53558600 0.63600132
0.35410139 0.99336588 0.34728138
0.35963469 0.10221111 0.74567375
0.17920827 0.81519369 0.93558341
0.49488282 0.83412310 0.63367624
0.62811976 0.98586259 0.10386372
0.79117720 0.14108023 0.52986900
0.93857973 0.61681662 0.03253493
0.88289734 0.73947023 0.62534019
0.57456754 0.17772626 0.16918347
0.24988723 0.09466541 0.65677192
0.37261575 0.64056998 0.00801723
0.27626214 0.73186801 0.60470884
0.07159511 0.03831912 0.88397668
0.05220776 0.28942891 0.64573562
0.74927314 0.59262605 0.14848811
0.69641544 0.62044319 0.76134393
0.33986975 0.09288886 0.24069744
0.20733744 0.93587280 0.81998294
0.21204650 0.47875919 0.14053966
0.35467511 0.25954346 0.90221077
0.85134902 0.09167374 0.25206452
0.74033620 0.82976902 0.59234142
0.84669863 0.79024692 0.95517986
0.90025997 0.60732478 0.51112830
0.54655627 0.45149952 0.10145779
0.27476855 0.22590039 0.60576459
0.26283794 0.66413303 0.09167873
0.39271865 0.52631541 0.53453400
0.97677703 0.11564754 0.05537225
0.73144920 0.40378798 0.68470647
0.08534101 0.58409075 0.98996158
0.16381478 0.59917715 0.75219192
0.04048385 0.20677347 0.36275212
0.41487729 0.23291702 0.65977745
0.23314470 0.66536083 0.91743011
0.10599095 0.76434979 0.63467043
0.90514957 0.00999953 0.11432208
0.17433588 0.33592809 0.51455176
0.27595047 0.45570632 0.36515810
0.75964235 0.67017208 0.58115119
0.88755444 0.50862429 0.10242622
0.44486492 0.36798682 0.79084551
0.32710163 0.66113438 0.49315922
0.11403790 0.96880576 0.06221596
0.77590528 0.48018166 0.35728241
0.20355295 0.22741637 0.88266547
0.77107393 0.07839994 0.15434654
0.91533495 0.92343725 0.97968852
0.33897186 0.42464954 0.23746961
0.29975031 0.35964437 0.97603033
0.31924321 0.84635030 0.48178489
0.50215242 0.87921199 0.87052882
0.60488422 0.39620664 0.50851575
0.84520908 0.33230676 0.99008342
0.90570727 0.91725828 0.48365232
0.91664537 0.83983077 0.77285733
0.34265738 0.14949015 0.51291348
0.15083195 0.16429014 0.98990873
0.33367111 0.76177554 0.38354468
0.91479819 0.49576501 0.91402113
0.95216554 0.52692556 0.61554195
0.66633209 0.33642019 0.99561596
0.83155620 0.90990521 0.25881999
0.67200727 0.84774989 0.99419999
0.36110909 0.30024366 0.48220640
0.41567358 0.24799684 0.16856860
0.24887172 0.91046879 0.34503897
0.38866353 0.71707111 0.19744614
0.76449844 0.36210742 0.44748547
0.96009946 0.36760728 0.79627602
0.88693614 0.77572153 0.29796171
0.75550578 0.91137184 0.83548055
0.24468074 0.39935162 0.66922584
0.27049002 0.40491297 0.83614454
0.47044988 0.84261604 0.32339590
0.47512754 0.06810204 0.09166694
0.95890360 0.36110097 0.30306276
0.89992680 0.24109616 0.16083994
0.75515543 0.84340303 0.40708731
0.85914092 0.98826953 0.35717309
0.49075533 0.63124522 0.13163569
0.46396641 0.37134114 0.96540290
0.34410714 0.90144141 0.24549517
0.22738957 0.09120390 0.82880785
0.92247091 0.49217547 0.39000887
0.97428587 0.65413202 0.17205190
0.23896802 0.84215347 0.08243465
0.65156414 0.99148166 0.72743353
0.36261828 0.62634153 0.60419658
0.12763500 0.61392169 0.87481468
0.61247682 0.86163050 0.60874203
0.87611535 0.38765026 0.88097797
0.36773671 0.11426456 0.12304385
0.35726386 0.37175539 0.38531983
0.63069034 0.63499590 0.37546962
0.12672828 0.37714168 0.13258455
0.13846574 0.36865953 0.62600701
0.62474317 0.62312259 0.86854134
0.86806522 0.88491525 0.87491429
0.12961867 0.12202768 0.37403033
0.62381898 0.13096133 0.88047639
0.63431731 0.36794426 0.11928834
0.86969624 0.14501715 0.62159385
0.38664708 0.87316514 0.87154037
0.99632341 0.99517699 0.03030614
0.00275297 0.98984501 0.51494568
0.98259489 0.51028764 0.01495181
0.96579922 0.50725826 0.49742526
0.49461420 0.99192634 0.99256150
0.51432891 0.00399450 0.48395545
0.49205235 0.49269556 0.00280797
0.50208920 0.48400832 0.50019901
0.99797397 0.24772142 0.25191397
0.00167421 0.25778792 0.75475492
0.99532733 0.74469525 0.25618921
0.00170084 0.75623871 0.74351221
0.51401142 0.24229110 0.23753179
0.51176388 0.27366356 0.74606368
0.49546295 0.75829041 0.24296671
0.49545767 0.74981605 0.73052892
0.26429717 0.99511754 0.25175567
0.25955202 0.00414205 0.73627434
0.24037455 0.50046413 0.25657040
0.23072776 0.49587141 0.74728610
0.76046713 0.00837543 0.26030844
0.75997764 0.00768214 0.76369431
0.74891846 0.51028527 0.24193382
0.73573464 0.50949505 0.74120065
0.24913026 0.24813810 0.98941776
0.25616302 0.23942758 0.49042752
0.24614789 0.74734546 0.00458011
0.24627502 0.74964808 0.48590785
0.75079774 0.25193632 0.99668853
0.76432269 0.25043047 0.49080122
0.74981640 0.75654848 0.01403539
0.74827147 0.75825172 0.49914710
0.43924615 0.19396946 0.44653940
0.44813957 0.17897887 0.92608600
0.42414133 0.68770417 0.42452783
0.44287273 0.70343414 0.92996742
0.94551685 0.19642781 0.44403026
0.94395040 0.19057848 0.96394368
0.94450751 0.69684938 0.43594329
0.92412539 0.69313638 0.94121757
0.20116863 0.06111484 0.05333513
0.18921083 0.06446424 0.55541595
0.18835873 0.56143763 0.05253387
0.18549849 0.56274665 0.55731377
0.70280299 0.06484012 0.05685118
0.69979810 0.05507834 0.56612002
0.68768500 0.54780211 0.05159544
0.68744931 0.56748585 0.55822896
0.30747359 0.05782827 0.43945315
0.30328625 0.04965900 0.92341922
0.30897531 0.54963534 0.44225529
0.30861192 0.56137947 0.93839848
0.81798262 0.05112488 0.45273511
0.81548246 0.06646304 0.93963467
0.80252972 0.56726805 0.43951535
0.80870383 0.55633216 0.93883712
0.06257641 0.20085052 0.07666270
0.05214775 0.19020820 0.57104902
0.03870103 0.68506969 0.05965782
0.05657150 0.69081939 0.55718172
0.55264473 0.16341671 0.05075381
0.55550684 0.18265572 0.56560842
0.56175583 0.68151502 0.04589600
0.54161135 0.69308288 0.54281279
0.12699517 0.13916906 0.87231349
0.13173511 0.62794369 0.37143455
0.62686398 0.11731045 0.37730300
0.44500576 0.42153545 0.16592299
0.43167004 0.45312934 0.69858337
0.44640363 0.94066531 0.18279191
0.43294393 0.92770957 0.68415820
0.93720436 0.44169640 0.19701624
0.92417768 0.45643439 0.71215906
0.94331173 0.93375756 0.19984378
0.94339796 0.93847508 0.70220248
0.18505160 0.30431995 0.30366219
0.19671473 0.31431570 0.80098391
0.18900648 0.81199806 0.29493116
0.18009980 0.81647348 0.80830580
0.67887474 0.29579317 0.30770938
0.70362596 0.32535026 0.79366717
0.68526774 0.81121575 0.30535603
0.69342322 0.81181244 0.80994427
0.30859918 0.30687078 0.19085923
0.31786900 0.30266810 0.68983215
0.30704004 0.80422626 0.17844563
0.30639286 0.81197135 0.69727503
0.80132405 0.30680947 0.19617205
0.81366577 0.31430326 0.67237861
0.80970263 0.80584998 0.19645324
0.81801210 0.81356248 0.69767155
0.04743320 0.44819542 0.31581516
0.05299172 0.44736790 0.81076457
0.06700585 0.93569664 0.31029624
0.07514383 0.95022541 0.79924525
0.54569683 0.42149575 0.29918856
0.55112852 0.44741078 0.81072374
0.56002481 0.93540445 0.30186365
0.56786532 0.92290217 0.78132506
0.12637808 0.86521552 0.12078174
0.12453288 0.88132628 0.62714940
0.62385660 0.38009028 0.62626079
0.63148853 0.87113412 0.11160001
0.19405196 0.18816348 0.18711604
0.19193376 0.19531546 0.68876770
0.18130231 0.69358864 0.18244878
0.19017918 0.69870388 0.69001358
0.69848760 0.18097206 0.18725988
0.68910153 0.20580177 0.67519797
0.68479550 0.68998920 0.19423855
0.68898095 0.71310019 0.68107129
0.44682209 0.05901222 0.30106644
0.45017698 0.03784284 0.80308542
0.41821993 0.52076116 0.29486952
0.43878066 0.56701594 0.81527018
0.95451401 0.05728311 0.31148428
0.95880075 0.06134830 0.81880197
0.94105911 0.57229683 0.30336781
0.94990435 0.58130211 0.81602364
0.06699628 0.04684494 0.19149603
0.05105504 0.06344415 0.68210835
0.05462489 0.55605901 0.18527050
0.05225671 0.55873184 0.68869069
0.56531448 0.05230811 0.18465884
0.55579046 0.04045886 0.67120268
0.55321364 0.54131473 0.18929124
0.55153978 0.57137813 0.69679683
0.30653266 0.19316537 0.30959223
0.30459781 0.18938713 0.81170516
0.30497807 0.68857002 0.29203346
0.29935974 0.70061905 0.81529221
0.80397695 0.18962976 0.31543954
0.80644341 0.19747283 0.78911513
0.79877073 0.68989910 0.31121433
0.79363103 0.68585995 0.80779828
0.36505864 0.12682628 0.62921137
0.37547194 0.62274346 0.12309377
0.88458435 0.12385947 0.13744106
0.86244295 0.62413509 0.12266982
0.87126027 0.62279263 0.62925393
0.18781200 0.43909760 0.44650556
0.19883793 0.43644489 0.94075370
0.18237446 0.94518628 0.44588961
0.17043442 0.94733011 0.93930099
0.68390479 0.45535572 0.43451862
0.69485640 0.43769459 0.92783640
0.69241047 0.94255853 0.44470266
0.69672753 0.95304787 0.93663045
0.43601741 0.28622525 0.05243510
0.44858043 0.30646279 0.56550367
0.45193985 0.80723708 0.05630771
0.42519736 0.81033682 0.53951438
0.94223046 0.31631775 0.07244618
0.95670244 0.31920440 0.55946850
0.93517221 0.81581018 0.04592413
0.94302950 0.81297025 0.54992566
0.07822733 0.29014948 0.44504105
0.05508196 0.30953199 0.95089741
0.06666689 0.80882280 0.43960513
0.05450200 0.78801999 0.92855561
0.56544401 0.29838155 0.44567409
0.55950558 0.29531122 0.94624940
0.54066774 0.80602984 0.42412457
0.56936490 0.80746374 0.93923565
0.30361188 0.44626325 0.06247109
0.30324157 0.44964571 0.56858686
0.30567136 0.93625038 0.03943934
0.30364898 0.94100776 0.55543555
0.80352141 0.43334618 0.05323832
0.79688500 0.44423979 0.55439208
0.81758712 0.94486588 0.05348151
0.80824842 0.92897595 0.56208899
0.37598117 0.37797199 0.88578245
0.36477488 0.87762876 0.36908569
0.86146102 0.39021192 0.37441884
0.87248029 0.87043825 0.37394533
0.24404154 0.99760401 0.98688701
0.24694899 0.00376465 0.49947368
0.25049465 0.50330400 0.99793396
0.24319062 0.50071677 0.50480441
0.75915535 0.00548874 0.99625038
0.75397784 0.99351505 0.50632013
0.75059006 0.49367371 0.99103951
0.74328541 0.50814795 0.49740189
0.24796092 0.24840988 0.24845152
0.25278035 0.25109972 0.74844352
0.24536736 0.75016756 0.23697176
0.24323325 0.75699470 0.75507062
0.74591114 0.24352608 0.25350136
0.75166408 0.26005152 0.73190233
0.74302998 0.75008463 0.25031077
0.75119834 0.75492108 0.74890309
0.00703224 0.99331193 0.25229717
0.00406069 0.00496246 0.75052809
0.99679509 0.50645986 0.24956548
0.99499941 0.51071592 0.75813868
0.50256037 0.99615168 0.24463172
0.50119409 0.98314685 0.73418214
0.48817666 0.47843156 0.23737863
0.49575023 0.50983567 0.75345392
0.00134751 0.25577784 0.01597634
0.00591286 0.25050434 0.50304592
0.99145246 0.74775292 0.99343649
0.00596083 0.75118005 0.49592574
0.49886423 0.23139397 0.99755056
0.50357481 0.24589131 0.50434738
0.50592805 0.74913181 0.99434585
0.47986438 0.74673590 0.48175402
Direct configuration=      2
0.09192524 0.26775521 0.17504943
0.97550029 0.09463864 0.57507237
0.09917675 0.52193744 0.41105797
0.83944134 0.57667046 0.75129180
0.74467813 0.08004759 0.35438062
0.53847853 0.21592056 0.85143106
0.71913603 0.46149680 0.13921554
0.77615879 0.42582185 0.83101970
0.29511455 0.28468618 0.38643370
0.03363143 0.21400843 0.87974557
0.40538921 0.51468944 0.08692213
0.40887265 0.49309986 0.90638880
0.65571395 0.08285628 0.26076096
0.81967439 0.05946380 0.81888178
0.71019741 0.71738372 0.89930218
0.38162411 0.96419420 0.95866395
0.35521557 0.00683120 0.64594799
0.35676884 0.95951844 0.78913897
0.15822935 0.41522674 0.25807035
0.26977349 0.54627107 0.64428211
0.45504842 0.90306454 0.45178547
0.51059865 0.08025806 0.91165569
0.74183703 0.66467665 0.41639791
0.58845868 0.58362824 0.97599405
0.85364199 0.26328188 0.40687482
0.09332428 0.15762504 0.76161059
0.15897514 0.65487053 0.49021045
0.07632146 0.73176439 0.84664561
0.60755088 0.00456932 0.39371985
0.66009704 0.02461909 0.83765807
0.57520145 0.58875825 0.48708641
0.84907578 0.74181928 0.10425728
0.17705710 0.08722014 0.26141144
0.11045323 0.78237054 0.21572231
0.16430049 0.74026773 0.39379667
0.13578188 0.99134426 0.70150518
0.70958241 0.21802482 0.39524676
0.66214490 0.16395755 0.98655459
0.86133488 0.77646512 0.46096490
0.82520223 0.65921444 0.99900383
0.14553915 0.19150914 0.49180302
0.85622780 0.25047188 0.57580131
0.02234369 0.65952342 0.34449633
0.66509580 0.57943275 0.26462731
0.51065107 0.10109912 0.40276395
0.75619605 0.10159567 0.68871004
0.66986027 0.41659113 0.27912882
0.51385963 0.66037631 0.82998918
0.34617348 0.50382282 0.76377375
0.24236039 0.59544253 0.35096149
0.14237856 0.75339430 0.06959812
0.08997113 0.01415408 0.40115163
0.83202759 0.16251448 0.02338726
0.59796469 0.35824908 0.74328063
0.58340881 0.73681181 0.32565216
0.81798101 0.94742167 0.68436247
0.15808261 0.33516943 0.01031829
0.24261018 0.15610477 0.40226524
0.35545666 0.79216983 0.97128533
0.23576622 0.91107986 0.65723520
0.75931899 0.24960151 0.88328930
0.58203047 0.26394806 0.64762555
0.65039965 0.75489916 0.09662817
0.38739231 0.78957768 0.78005232
0.15687683 0.50158120 0.84809052
0.57424875 0.22860556 0.33989165
0.00845839 0.85372243 0.15110934
0.16245661 0.83581772 0.51916201
0.72457264 0.27452489 0.11007337
0.71558644 0.28926947 0.59389499
0.54007207 0.88793704 0.03261143
0.63381761 0.74135807 0.47763823
0.01537020 0.41407056 0.09961507
0.90896422 0.40705150 0.49188062
0.28364862 0.02023259 0.13421295
0.00675458 0.90433508 0.60359365
0.46395393 0.44261922 0.38742908
0.65377140 0.50804810 0.83401619
0.66204945 0.91500570 0.23144428
0.60399238 0.81989575 0.73793549
0.14936620 0.58926690 0.25888465
0.96522574 0.64476418 0.71324714
0.98781137 0.85892214 0.36156599
0.11243137 0.97268375 0.55021595
0.83344366 0.40778372 0.25947258
0.50876319 0.40846476 0.60218805
0.75033173 0.85494615 0.10271162
0.60295511 0.96851451 0.55178874
0.30048833 0.14266325 0.00600039
0.12090094 0.45360813 0.70547087
0.15478735 0.94065889 0.20844545
0.08000389 0.86068305 0.74096238
0.54067350 0.34725685 0.19813361
0.64345317 0.49417303 0.65742920
0.52375280 0.84481432 0.16576070
0.91795568 0.16674355 0.73258215
0.25337866 0.25291940 0.10494674
0.47501214 0.09891597 0.59512383
0.33247178 0.57934225 0.22422430
0.47195469 0.65183405 0.65115819
0.98396612 0.13305531 0.20537790
0.64155197 0.13860063 0.49250948
0.82978028 0.58594482 0.23125630
0.79048664 0.53047571 0.63818791
0.35362575 0.99567757 0.35062154
0.36221710 0.11031239 0.74577176
0.18860342 0.81766789 0.93774172
0.51211635 0.80720963 0.62289677
0.62988153 0.98816742 0.10476369
0.79494627 0.13749708 0.52611084
0.94722529 0.61673634 0.03299057
0.88001177 0.73608774 0.62284930
0.57393074 0.18166827 0.16917844
0.25009756 0.09362455 0.65766289
0.37284458 0.64450086 0.00960464
0.26743876 0.73817865 0.60738119
0.08013063 0.03552252 0.90308802
0.04863460 0.28730311 0.64528277
0.74568692 0.63916286 0.10472388
0.69520970 0.61833735 0.75858956
0.34225528 0.09177779 0.24106056
0.20132972 0.93699409 0.82187024
0.21346795 0.48081612 0.14143659
0.35158849 0.26221908 0.90278453
0.86815541 0.04369162 0.22760603
0.73201456 0.82483351 0.58959682
0.84857081 0.81061022 0.97085608
0.90140513 0.60550096 0.51256402
0.56202227 0.46911298 0.09704660
0.27168978 0.22475605 0.60674937
0.26518396 0.66381018 0.09431255
0.39172209 0.52636967 0.53540611
0.97666557 0.11687270 0.04702221
0.73073828 0.39846403 0.68935869
0.08729387 0.58596104 0.98848058
0.16152134 0.59613531 0.75037858
0.03543117 0.19815234 0.36231808
0.41373018 0.23436818 0.65771861
0.23751013 0.66569459 0.91960761
0.09560942 0.76647355 0.64581382
0.91230478 0.00430977 0.09728834
0.16836129 0.33526367 0.51135590
0.27490253 0.45175958 0.36444565
0.75939728 0.66433920 0.58344643
0.88701933 0.50976043 0.10022989
0.44526268 0.36600804 0.79055940
0.32651223 0.66211653 0.49807948
0.08110350 0.90958808 0.02684334
0.78418981 0.47736714 0.36110278
0.20114127 0.22886010 0.88400454
0.77015037 0.08713569 0.15666233
0.90089056 0.96999765 0.94446215
0.34402166 0.42833942 0.23326779
0.30232090 0.36204570 0.97870165
0.31762221 0.85075619 0.48288124
0.50075197 0.89377261 0.88404227
0.62028016 0.38050628 0.51030425
0.84156664 0.33340743 0.99210390
0.90170738 0.91626000 0.48589052
0.91584579 0.83952147 0.77499862
0.34443807 0.15715280 0.51217838
0.14865766 0.16802475 0.99143205
0.33179871 0.76324051 0.38656576
0.91090287 0.49429246 0.91403598
0.95524142 0.52651754 0.61657083
0.66486443 0.33638722 0.99447606
0.79649915 0.89587391 0.28118875
0.67399838 0.84591044 0.99489818
0.33872523 0.33841256 0.50615504
0.40948119 0.23290135 0.16286754
0.24670636 0.91275879 0.34299046
0.39062578 0.71784574 0.19765551
0.77459027 0.36134654 0.45635780
0.95837867 0.36232470 0.79589533
0.88600854 0.77596105 0.29696145
0.76318424 0.91251787 0.83406253
0.24086222 0.39711161 0.67017827
0.26816754 0.40358369 0.83869503
0.46829340 0.84219520 0.32303277
0.47571619 0.07170092 0.09106434
0.96638427 0.35543505 0.31087818
0.89624653 0.23579446 0.15848894
0.75287960 0.83956116 0.41700673
0.86270587 0.98560348 0.35558643
0.49339315 0.63603325 0.13425288
0.46596247 0.37348365 0.96441261
0.34258895 0.90461617 0.24614034
0.22519710 0.09236032 0.82811027
0.93402646 0.48743835 0.38566528
0.97179726 0.65264165 0.17427830
0.23768044 0.84103289 0.08925378
0.64585065 0.96941880 0.70047208
0.36240638 0.62277331 0.60753198
0.13201065 0.62070977 0.87360053
0.61908270 0.87198936 0.62776247
0.87509438 0.38538116 0.88181086
0.37063197 0.11916268 0.12562819
0.36261819 0.37898750 0.39579864
0.62760470 0.64472620 0.38861027
0.12658547 0.37845293 0.13464558
0.13554522 0.36721419 0.62547984
0.62307147 0.62295238 0.86704732
0.86952390 0.87947863 0.87536916
0.13152286 0.12213501 0.37510602
0.61364414 0.12475292 0.88020803
0.63416905 0.37289422 0.11896403
0.86945447 0.13676037 0.62187910
0.38545003 0.87546775 0.87679244
0.99656124 0.00348939 0.00593278
0.00188590 0.98882770 0.51287630
0.98367033 0.50948455 0.01327678
0.97257304 0.50839811 0.49575708
0.49270764 0.98897188 0.98920397
0.51692079 0.00454595 0.47811946
0.49409459 0.49752899 0.99907954
0.49949029 0.49132906 0.50106587
0.99902863 0.24597878 0.25278904
0.00412605 0.24743238 0.75762089
0.99598410 0.75061185 0.25016936
0.00940833 0.75985962 0.74535859
0.50692015 0.24289658 0.23408381
0.50937694 0.27098500 0.74614006
0.49673253 0.75895726 0.24193932
0.49512130 0.74823154 0.73227163
0.26286883 0.99797962 0.25124121
0.25414370 0.00504278 0.73900209
0.24379089 0.50142905 0.25685880
0.23012764 0.49389243 0.74781178
0.75598821 0.00650526 0.25778395
0.74471272 0.00218970 0.75453043
0.74929330 0.49560227 0.24932068
0.73541760 0.50608360 0.74226453
0.24835374 0.25242737 0.99001732
0.25587538 0.24476226 0.49215406
0.24953809 0.74762438 0.00731462
0.24612480 0.75094615 0.48899324
0.74883035 0.25062674 0.99855954
0.76509022 0.24834949 0.49425030
0.75172995 0.75263530 0.02129196
0.75080048 0.74986619 0.49846176
0.43955906 0.19117732 0.44245665
0.44187167 0.18106836 0.93165184
0.42315706 0.68932241 0.42918550
0.44433285 0.70424447 0.93148147
0.94372671 0.18987420 0.44688183
0.94160217 0.19540345 0.96111917
0.94745438 0.69524213 0.43701267
0.92939056 0.70048670 0.94402649
0.20354359 0.06925656 0.05258456
0.18736629 0.06640489 0.55655131
0.18998116 0.56361481 0.05310010
0.18560311 0.56100350 0.56067859
0.70529460 0.06388185 0.05507736
0.69897817 0.05522592 0.56598798
0.68122985 0.54672014 0.05187806
0.68881510 0.56197759 0.56018038
0.30675324 0.06128610 0.44228610
0.30105172 0.04645585 0.92200576
0.30764245 0.55040183 0.44454410
0.31121453 0.56321817 0.93944283
0.81425366 0.04501832 0.44997095
0.82111247 0.06366969 0.94079778
0.80582315 0.56345458 0.44284849
0.80459044 0.55789378 0.93705201
0.05964718 0.20106142 0.07566872
0.05405407 0.18944108 0.56945544
0.04259740 0.68279182 0.06271748
0.05992301 0.69371119 0.55905984
0.55216654 0.16452877 0.05107931
0.55394268 0.18534185 0.56211982
0.56386268 0.68365541 0.04651836
0.53976267 0.70073665 0.54869621
0.12537660 0.13900498 0.87524125
0.13201079 0.62753750 0.37342045
0.62945045 0.12158365 0.37513743
0.45668037 0.43117562 0.16266386
0.43381600 0.44852563 0.69621724
0.44422124 0.94189556 0.18198279
0.43222079 0.92539449 0.69775944
0.93862084 0.44215012 0.19495121
0.92884636 0.44788805 0.70757836
0.94121365 0.94208834 0.20064891
0.94099775 0.93714170 0.70111789
0.20067187 0.31260394 0.31265127
0.19394750 0.31456547 0.80109386
0.19336185 0.80815997 0.30022252
0.17208724 0.81459443 0.81280138
0.67789524 0.29720816 0.30823793
0.70485378 0.31780248 0.79707622
0.68886183 0.81251281 0.30805302
0.69734835 0.81090751 0.81309734
0.31420559 0.30758813 0.19032110
0.31568971 0.30239845 0.69034646
0.30910610 0.80402490 0.18203509
0.29865011 0.81674539 0.69987179
0.80178061 0.30423417 0.19792514
0.81052567 0.31073174 0.67355395
0.80810655 0.80562670 0.19881817
0.82016287 0.81039312 0.69877093
0.04615545 0.45144735 0.31718751
0.05299842 0.44362740 0.81218829
0.06604735 0.93446075 0.31052658
0.06514026 0.96004268 0.80529837
0.55036781 0.42298614 0.29685195
0.55088683 0.44632617 0.81065716
0.55880750 0.93592837 0.30022878
0.56822887 0.93575224 0.79441606
0.12244201 0.85844864 0.12525850
0.12136079 0.88446505 0.63067398
0.62474541 0.37557124 0.62835990
0.63111912 0.87318191 0.11296836
0.19219172 0.19686805 0.19181289
0.19090235 0.19355936 0.69075935
0.18697221 0.69027024 0.18623151
0.18678098 0.69933479 0.69400615
0.69584202 0.18169084 0.18931649
0.68659492 0.20126390 0.67767131
0.68129137 0.68986964 0.19745786
0.68901693 0.71346866 0.68140369
0.44688077 0.05959450 0.30124555
0.44581356 0.04540464 0.80641092
0.42397069 0.52354659 0.29457554
0.43737178 0.56608149 0.80902995
0.95548129 0.06066633 0.31063101
0.94143655 0.06776468 0.80995683
0.93656136 0.57310308 0.29893417
0.94472045 0.57244134 0.81668362
0.07195493 0.04782831 0.19424464
0.04342218 0.06724890 0.68181059
0.05553014 0.55785447 0.18628745
0.05082598 0.55796775 0.69253739
0.56291623 0.05348794 0.18287364
0.55017696 0.04179545 0.67279418
0.56083512 0.55274371 0.19339019
0.55296152 0.56730041 0.69348048
0.30991950 0.19169703 0.30778155
0.30279815 0.19069505 0.81358329
0.31121100 0.68732134 0.29509489
0.29971502 0.70765683 0.81838547
0.80208036 0.18808322 0.31731673
0.80864546 0.19059838 0.78913003
0.80153173 0.68741820 0.30954188
0.79260888 0.68188606 0.80769005
0.36430012 0.12748594 0.62946505
0.37816102 0.62409699 0.12380673
0.88693384 0.11711476 0.13156825
0.86428873 0.62571181 0.11722581
0.87210910 0.61940602 0.63154656
0.18588100 0.44004348 0.44666767
0.19997715 0.43934284 0.94224529
0.18351899 0.94550604 0.44820885
0.16840303 0.94738032 0.94168631
0.68936553 0.44863092 0.43704069
0.69381274 0.43772513 0.92797998
0.68449752 0.93504145 0.45527620
0.69637727 0.95081341 0.93417231
0.44090646 0.29154349 0.05684713
0.44500356 0.30641776 0.56321495
0.45233947 0.80800910 0.05773452
0.42690984 0.81804126 0.53933959
0.94013304 0.31660690 0.07421507
0.95606486 0.31639293 0.55862049
0.93857684 0.81453128 0.06078273
0.94263676 0.81151649 0.55096277
0.07374625 0.28786052 0.44018139
0.05399694 0.31287603 0.95265173
0.06613093 0.81063994 0.44052981
0.05807199 0.80350909 0.94768116
0.56000121 0.30180769 0.44205507
0.55839611 0.29376223 0.94365361
0.54044135 0.80657822 0.42277873
0.56917514 0.81054212 0.94042689
0.30579924 0.44889408 0.06392491
0.30187968 0.44640015 0.56833805
0.30084472 0.93818689 0.04365204
0.30322342 0.94428999 0.55872801
0.80191954 0.43682568 0.05303256
0.80178769 0.44118923 0.55657347
0.81867518 0.93901946 0.04446244
0.80598527 0.92625461 0.56314478
0.37561692 0.38016691 0.88561382
0.36384051 0.87962763 0.36934426
0.86846285 0.38632919 0.37755600
0.86899128 0.86819404 0.37690473
0.24149620 0.00075822 0.98995739
0.24669582 0.00628712 0.50172238
0.25272409 0.50574857 0.99903403
0.24185001 0.50029999 0.50519136
0.75918145 0.00376912 0.99334410
0.75084860 0.99003159 0.50733175
0.74719485 0.49600093 0.99140567
0.74656144 0.50403420 0.49974060
0.25265963 0.25337122 0.25100760
0.25069015 0.25113543 0.74939879
0.24975339 0.74797230 0.24133856
0.23959679 0.75858155 0.75801013
0.74517172 0.24302483 0.25557346
0.75236028 0.25386378 0.73295133
0.74369909 0.74715590 0.25294722
0.75180627 0.75310626 0.74958089
0.00952214 0.99618034 0.25365692
0.99496978 0.00902126 0.74914578
0.99559410 0.50777181 0.24831988
0.99330750 0.50509302 0.75898787
0.50103714 0.99684597 0.24355275
0.49841845 0.98815498 0.74015664
0.49750545 0.48642179 0.23818638
0.49649856 0.50710783 0.75077605
0.99908183 0.25810693 0.01586924
0.00478587 0.24776711 0.50200086
0.99282336 0.75047743 0.00377526
0.00717503 0.75145688 0.49727099
0.49792175 0.23341842 0.99909510
0.49949208 0.24669646 0.50037517
0.50723830 0.75087044 0.99543603
0.47850223 0.75124726 0.48321403
Direct configuration=      3
0.09265897 0.26790211 0.17236375
0.98090616 0.09577218 0.57868251
0.09068179 0.51997779 0.41264782
0.83830587 0.60275668 0.74396279
0.72973961 0.04620432 0.37361067
0.53969283 0.21466552 0.85091146
0.71836038 0.46181061 0.13970698
0.79400972 0.46688163 0.84271056
0.30031097 0.28134779 0.38549527
0.03283666 0.21163851 0.87992307
0.40541654 0.51500259 0.08612969
0.40903606 0.49342695 0.90860703
0.66625916 0.09545206 0.26851101
0.81503259 0.06935980 0.81683134
0.70521505 0.72398194 0.90327797
0.38437872 0.96440692 0.95978567
0.35594951 0.00961302 0.64841833
0.35723550 0.96103198 0.79129051
0.16027046 0.41504718 0.25794165
0.26996079 0.54588684 0.64603550
0.45229006 0.89903631 0.45412815
0.51153479 0.08120336 0.91704110
0.74505771 0.66147122 0.41742882
0.58991291 0.58321752 0.97627271
0.85350455 0.26499405 0.40064483
0.09375273 0.15807352 0.76121411
0.15643014 0.65339946 0.49135664
0.07534222 0.73717541 0.84390326
0.59237840 0.00594896 0.38982321
0.65786869 0.02430176 0.83544357
0.57781525 0.58413133 0.48306548
0.84834837 0.74204799 0.10512022
0.17638856 0.08247462 0.25960053
0.10839219 0.77903140 0.21453224
0.16478774 0.73770544 0.39241276
0.13753603 0.99353079 0.69757646
0.71258629 0.21452588 0.38960173
0.66304614 0.16850617 0.98214986
0.86112503 0.77374683 0.46001746
0.82399748 0.65889797 0.99793821
0.15751794 0.16550102 0.50149512
0.84769992 0.25144567 0.58340620
0.02024653 0.65900437 0.34693808
0.66623740 0.58080673 0.26680767
0.53358387 0.11296329 0.45297264
0.75311662 0.09324654 0.67331111
0.66920445 0.41569008 0.27900855
0.51564477 0.65787925 0.82635808
0.34661177 0.49915673 0.76887189
0.23975571 0.59476642 0.35226705
0.14315722 0.75232160 0.06940950
0.05182241 0.02921320 0.39868042
0.82996270 0.16422525 0.02303315
0.59347739 0.35729214 0.74200335
0.58366167 0.73466028 0.32336493
0.81669254 0.94449219 0.68629860
0.15896704 0.33518531 0.01335111
0.24197118 0.15528249 0.39847502
0.35542763 0.78903992 0.96417351
0.23767483 0.91203047 0.65640061
0.76977422 0.26831187 0.88170095
0.58594596 0.26102133 0.64817174
0.64800976 0.75646883 0.09754258
0.39027610 0.79077595 0.77665097
0.15493937 0.50359787 0.85281736
0.56414803 0.22011250 0.34743548
0.00955552 0.85832862 0.14832886
0.16160502 0.83467838 0.51953214
0.72554924 0.27732411 0.10747461
0.71556366 0.29713670 0.59364280