Li192 P32 S160 I32
1.0
20.433000 0.000000 0.000000
0.000000 20.433000 0.000000
0.000000 0.000000 20.433000
Li I S P
192 32 160 32
Direct configuration=      1
0.13849100 0.03065757 0.36112762
0.13534824 0.13285003 0.75725132
0.14493584 0.72834139 0.41605011
0.15249364 0.73560399 0.88350340
0.65903608 0.02925197 0.33560087
0.63338422 0.00111295 0.88974403
0.62873673 0.63956535 0.47582798
0.60411622 0.62443859 0.74703541
0.26211629 0.41606498 0.37625621
0.40543244 0.34337612 0.76314362
0.26276333 0.89326010 0.33040386
0.38426513 0.99521165 0.88773240
0.85458141 0.37397776 0.50567772
0.75620360 0.35834517 0.90170588
0.86245755 0.99672830 0.36022224
0.88860146 0.83355998 0.75609867
0.40217059 0.02051025 0.10677779
0.32208544 0.11091341 0.72749789
0.36795747 0.74493968 0.08892038
0.35261248 0.51411479 0.64663900
0.84873936 0.12009226 0.02009650
0.85640401 0.97411465 0.64150528
0.77069894 0.56826404 0.12240074
0.77618374 0.53841826 0.62687310
0.15745854 0.49003568 0.14295661
0.13914229 0.47919030 0.62383536
0.11069551 0.85708621 0.23944268
0.15214499 0.97782111 0.68599672
0.61323869 0.49250353 0.15222793
0.64195580 0.48706237 0.63102271
0.60408382 0.87205541 0.00585016
0.65210963 0.85849600 0.50710824
0.36618173 0.15659746 0.02095397
0.26983633 0.14771369 0.58130811
0.47731337 0.65553933 0.15142005
0.33924743 0.64621147 0.51424852
0.85820561 0.22827198 0.10868388
0.83773146 0.11922293 0.52483634
0.87852768 0.63035219 0.99576378
0.86981126 0.61661146 0.50913160
0.41868287 0.50511620 0.40830379
0.49126351 0.36456456 0.88821200
0.32968281 0.83255850 0.46679362
0.35646295 0.86555631 0.98880605
0.98190675 0.39795253 0.39284716
0.88604377 0.24721985 0.87254079
0.98503099 0.89695815 0.38808865
0.77699640 0.83246599 0.88580470
0.13748025 0.35158516 0.00779109
0.23227330 0.36436226 0.62250186
0.10441087 0.98695623 0.13326836
0.12952145 0.90819174 0.51555902
0.60899067 0.40468964 0.01810930
0.61067826 0.38034394 0.50271413
0.74530384 0.89317329 0.12749185
0.66404333 0.76422822 0.60695251
0.11678175 0.09424197 0.49309414
0.14988024 0.01126054 0.84069963
0.07956643 0.58735613 0.48228769
0.10132672 0.63752359 0.75919398
0.59742717 0.11758489 0.47166334
0.63334391 0.13750619 0.99630724
0.61132274 0.74464846 0.34719983
0.71880667 0.61879813 0.82679011
0.01427807 0.37795065 0.11040807
0.14875920 0.35477299 0.51006609
0.02342874 0.83654608 0.11794491
0.01831900 0.89951616 0.59149962
0.50797162 0.35196852 0.15355511
0.52115608 0.40035557 0.60045050
0.62995677 0.77723862 0.12798074
0.50659969 0.88474730 0.58200379
0.35410767 0.40782447 0.27812724
0.35879114 0.26286220 0.89096393
0.32170340 0.00222610 0.34941621
0.49153552 0.87965427 0.87445148
0.86184636 0.48762772 0.35321466
0.86594448 0.35157720 0.00878893
0.90778411 0.85781201 0.24466550
0.87101740 0.97124220 0.86067952
0.00696800 0.13490609 0.38342607
0.02038031 0.09185906 0.89056294
0.22966859 0.63001614 0.39324240
0.02357457 0.63278534 0.86714131
0.50783264 0.13737844 0.36657771
0.50464788 0.09688407 0.89544131
0.49950507 0.63996229 0.34646606
0.60977339 0.51895847 0.86838804
0.47330219 0.14646614 0.15613803
0.36717745 0.00803843 0.65751883
0.43762879 0.60645025 0.04355581
0.48280478 0.60460886 0.57796869
0.01111100 0.16219219 0.13248556
0.98648870 0.12340493 0.63646290
0.89382447 0.49391067 0.09794897
0.90548283 0.49972029 0.62050107
0.12940166 0.26005180 0.13174341
0.12100283 0.24040204 0.64267991
0.10521569 0.89688623 0.01215450
0.15239550 0.76424923 0.62290897
0.65960413 0.26925139 0.08961593
0.63685361 0.25452388 0.60128387
0.64669744 0.90123838 0.24426622
0.57925260 0.85239850 0.72966333
0.38853036 0.23956935 0.16191480
0.40567786 0.11756566 0.51022064
0.38673147 0.51446595 0.12820192
0.39441104 0.73329706 0.65493965
0.91122846 0.14244532 0.23086125
0.87829214 0.21959709 0.65716903
0.00189376 0.62246290 0.13293511
0.98479891 0.64987765 0.63722583
0.48777660 0.40051310 0.40765735
0.38154709 0.37128449 0.98449749
0.49439534 0.91967845 0.41195212
0.34531408 0.75431216 0.90669516
0.89659280 0.35293347 0.25958918
0.97523637 0.36339217 0.84235424
0.86340372 0.76958856 0.35975729
0.87279419 0.86056374 0.97604134
0.09916602 0.25164851 0.38511519
0.11848935 0.11389208 0.99124645
0.12584691 0.52781083 0.33411440
0.14173894 0.51378986 0.85432607
0.62508102 0.25489398 0.37309136
0.61686299 0.22747023 0.86678935
0.64967948 0.60892024 0.25879373
0.64188464 0.63180855 0.98473587
0.35778346 0.28039373 0.38802514
0.26945462 0.38027963 0.85561197
0.36632425 0.88832436 0.25249536
0.36798569 0.87465950 0.77273801
0.76015286 0.39484616 0.34445923
0.89980286 0.48863331 0.90041467
0.74948297 0.89007319 0.36874097
0.99814625 0.88271443 0.89150310
0.32351491 0.08955749 0.21692312
0.47475059 0.15752907 0.68208473
0.29164823 0.62947904 0.03952722
0.37273335 0.62859606 0.74629068
0.92728250 0.02762839 0.09786005
0.87026850 0.10761834 0.74268287
0.86322995 0.61016974 0.22390628
0.87105786 0.61778286 0.73635420
0.12896387 0.14248991 0.26583052
0.07961279 0.22796674 0.86199640
0.10918339 0.66092887 0.26012393
0.09695454 0.58401406 0.97578391
0.60213449 0.14754760 0.24980955
0.61258122 0.11884163 0.77011783
0.61124964 0.52426984 0.37271617
0.51492172 0.67020242 0.86439078
0.11607361 0.37434542 0.24012683
0.01445009 0.40362263 0.60121416
0.16550203 0.75326110 0.11804008
0.09807883 0.84020708 0.71842689
0.61547972 0.29808519 0.22066641
0.61842480 0.36430374 0.72790653
0.52552680 0.87727996 0.17611962
0.60875846 0.98824500 0.59226595
0.37329302 0.36778826 0.49475773
0.40187294 0.48770379 0.89317949
0.41172872 0.78048198 0.32309320
0.26082871 0.91238759 0.85754945
0.86631640 0.26693212 0.38814980
0.84180424 0.40041724 0.76697009
0.89084512 0.89349376 0.49302149
0.88904739 0.74976819 0.87204657
0.24503470 0.34773926 0.11283214
0.11438862 0.37937509 0.73091712
0.23574857 0.89135679 0.14973235
0.24671380 0.85466236 0.61156421
0.72306118 0.38349812 0.14463373
0.73079744 0.36091813 0.60813321
0.61507388 0.99690882 0.09749592
0.72333491 0.89916156 0.67048086
0.26264226 0.14352618 0.09020609
0.36368570 0.24243065 0.63892109
0.30634926 0.61701056 0.21636501
0.26724924 0.61639312 0.64624517
0.77494654 0.09259927 0.15465733
0.76565101 0.10907344 0.64775000
0.84427279 0.72504026 0.09874327
0.84660490 0.72671035 0.61510019
0.23013415 0.16365567 0.39902674
0.24525905 0.12920580 0.89067893
0.00123152 0.66503672 0.35554316
0.24572551 0.59769091 0.87614596
0.73073075 0.15859668 0.39206392
0.72728505 0.11293953 0.87582855
0.74220215 0.64424771 0.36445571
0.61717750 0.74840110 0.85952513
0.01224196 0.99368732 0.99522766
0.99466281 0.98453236 0.49777624
0.00435705 0.49404372 0.00386300
0.98109713 0.49368974 0.51442618
0.50280774 0.00010633 0.00110364
0.49898882 0.00831010 0.51106626
0.49573566 0.49811803 0.00114435
0.51018748 0.49623775 0.50111591
0.00888436 0.24670657 0.24300711
0.98939664 0.24702860 0.74995837
0.99201327 0.74314262 0.25566369
0.99436435 0.74319916 0.74423969
0.49270814 0.24584755 0.25741859
0.52056334 0.26444082 0.74667207
0.51275004 0.75132554 0.24919438
0.48801504 0.73643478 0.75324300
0.23299039 0.00671996 0.25580968
0.26309632 0.00514689 0.76115775
0.24738407 0.49463166 0.25103119
0.24569732 0.52839047 0.74351145
0.74944859 0.99492521 0.24254983
0.76678512 0.00155506 0.75114746
0.73139818 0.49969544 0.24884436
0.74159335 0.49778846 0.74542573
0.25573681 0.24412312 0.00782482
0.24812840 0.25886474 0.50641223
0.25031661 0.75376543 0.00619081
0.22964032 0.74143613 0.50945375
0.77650728 0.23270529 0.00533207
0.75219891 0.25349992 0.50495232
0.76602357 0.73877940 0.98784627
0.74316471 0.75806330 0.48622372
0.12006910 0.13068418 0.38426867
0.12885059 0.12152162 0.87357735
0.10362739 0.62436756 0.37871620
0.13271467 0.62661109 0.87484478
0.62613226 0.13396133 0.35964859
0.62077877 0.11807510 0.89304460
0.63289508 0.63277417 0.36384808
0.61810805 0.63283376 0.85804610
0.38987519 0.39557706 0.37862549
0.37991215 0.36919397 0.87504316
0.37500644 0.88974277 0.36306593
0.36765397 0.87565589 0.87904495
0.87279730 0.37427864 0.37065498
0.86810556 0.37733074 0.88518406
0.87196890 0.88183094 0.35928306
0.88711733 0.85564581 0.86619541
0.36623775 0.12418898 0.12279241
0.36827828 0.13673391 0.62469046
0.37993425 0.62872859 0.12992265
0.37292605 0.62459637 0.62567683
0.89692745 0.12535246 0.12216377
0.87621703 0.10906860 0.63395586
0.87568087 0.60912804 0.11031875
0.87895661 0.61707262 0.62834231
0.13455456 0.37431347 0.12040625
0.12507707 0.36004570 0.61927325
0.12845952 0.86559491 0.11707468
0.13414080 0.88328719 0.62400444
0.61152349 0.37427889 0.12588701
0.62165907 0.35784297 0.62078490
0.63352162 0.88885155 0.12437275
0.62338773 0.87851205 0.61749605
0.04727749 0.44249560 0.31349578
0.05723856 0.44253432 0.80625855
0.06552189 0.94026620 0.30242895
0.06288525 0.92808535 0.80790568
0.54176537 0.45184447 0.31689541
0.54833456 0.43809393 0.81077026
0.55232721 0.94739429 0.30505239
0.56167914 0.95229428 0.81158014
0.43013885 0.07144646 0.29873835
0.44043779 0.06370188 0.79739390
0.42413408 0.56504874 0.30767602
0.44198092 0.56536386 0.80180627
0.94491448 0.05496174 0.31062552
0.95036760 0.04465071 0.80473785
0.93582788 0.56342920 0.29499394
0.95432958 0.55876806 0.80775895
0.43537526 0.44118095 0.19637538
0.44102440 0.42911360 0.69202964
0.43988684 0.94989656 0.19751517
0.44690804 0.93632524 0.69739322
0.94823673 0.43602383 0.19083411
0.94468705 0.43442808 0.69746950
0.96440474 0.94657305 0.18407392
0.96036610 0.91684201 0.68716468
0.06445640 0.07010003 0.19727567
0.06115415 0.04697111 0.69730399
0.06689223 0.55628637 0.20119858
0.05584423 0.55621611 0.67319452
0.55132037 0.06797542 0.18404259
0.56111323 0.06344567 0.68253832
0.54510700 0.56841220 0.19934141
0.56124277 0.54683502 0.68672550
0.31230095 0.07456849 0.45789708
0.31518996 0.06724845 0.95592888
0.30769061 0.55421590 0.43815029
0.32706914 0.55044339 0.95270728
0.78543788 0.06819933 0.42726580
0.81290297 0.04896822 0.93834764
0.80326427 0.55595676 0.43287615
0.79900340 0.55565669 0.93469215
0.30264515 0.43392197 0.07208686
0.29483972 0.44482538 0.56175540
0.31211469 0.94453607 0.06583319
0.31241286 0.95323731 0.56841427
0.78628603 0.43037423 0.05413257
0.79554484 0.45349487 0.55782578
0.83519301 0.94054705 0.05541542
0.79861112 0.94849544 0.53920781
0.18150442 0.45629057 0.44335206
0.20071969 0.44867645 0.92985443
0.20400935 0.96007543 0.43968811
0.19296172 0.94993413 0.94798167
0.68905335 0.44525085 0.42451056
0.68063978 0.43891425 0.93300224
0.67746312 0.95272776 0.43280244
0.70028141 0.92552638 0.95711514
0.18617472 0.05527019 0.06789476
0.18346003 0.04877924 0.57243841
0.19773263 0.55436589 0.04519049
0.18953871 0.57433926 0.55004750
0.71127668 0.05109690 0.06334577
0.68848817 0.07041404 0.55117047
0.68082536 0.55239342 0.04947300
0.68127329 0.55433514 0.54839511
0.43983351 0.30086946 0.05806212
0.43459372 0.30928559 0.57365602
0.45029259 0.83231836 0.06005451
0.42098183 0.80129103 0.55081467
0.95041625 0.30012398 0.06238523
0.92685689 0.30017149 0.57270606
0.94424041 0.79009251 0.04990990
0.93273804 0.79849189 0.56097087
0.04761839 0.31781234 0.45525542
0.05024751 0.31840067 0.92966003
0.06274747 0.80684661 0.45246384
0.07887104 0.80387956 0.94057298
0.54449248 0.30586213 0.44413027
0.57171275 0.30624056 0.96303801
0.55306303 0.82040653 0.45148095
0.54842459 0.80454852 0.93176563
0.43402523 0.20151883 0.44798410
0.44739564 0.19165356 0.94249304
0.44399882 0.69503874 0.42387442
0.43689159 0.69317250 0.95479177
0.93649667 0.19392889 0.43797564
0.95507180 0.18453222 0.93922391
0.93702154 0.69203237 0.44162788
0.95881844 0.67544219 0.93731656
0.07635025 0.20186694 0.04945776
0.05194975 0.18930633 0.55959362
0.07157158 0.68745316 0.05662296
0.05377704 0.68842523 0.55726637
0.57274245 0.19593882 0.07031165
0.54177884 0.17797395 0.55374465
0.54834886 0.69776754 0.07067116
0.55279611 0.69362088 0.55624593
0.32356375 0.31702018 0.20789788
0.30016947 0.32449380 0.70735532
0.30985188 0.81028428 0.20325963
0.30675362 0.81291867 0.69318558
0.81006223 0.32684531 0.18916814
0.80803417 0.31346704 0.69167152
0.81028311 0.80422074 0.16958037
0.79555172 0.80268655 0.68145303
0.30319040 0.19875821 0.32076146
0.31607357 0.19384426 0.80036271
0.30671228 0.70080607 0.32310449
0.30997173 0.70199076 0.81924097
0.81477248 0.19880058 0.29675106
0.80238310 0.18841359 0.80469984
0.81957343 0.68755477 0.29748481
0.80203484 0.69423369 0.80096485
0.21072436 0.19375954 0.19467559
0.21283366 0.18225169 0.68581143
0.20725424 0.69868434 0.20161729
0.19468371 0.69204938 0.70616404
0.70115143 0.20083475 0.18021899
0.68697444 0.19271781 0.68667438
0.70966167 0.69809071 0.17503827
0.69236670 0.67706439 0.68078832
0.19991660 0.31753652 0.31409300
0.17752754 0.29449479 0.80581257
0.18379008 0.80893130 0.32197074
0.18575289 0.82580693 0.80027495
0.69601250 0.30508333 0.30614122
0.69110977 0.31305211 0.81101291
0.70266573 0.80877543 0.30145620
0.69230345 0.80753596 0.79703243
0.00894757 0.00480037 0.25265904
0.00371620 0.98564527 0.74920874
0.99816007 0.50157593 0.24560332
0.00403908 0.50214053 0.74798713
0.49428087 0.01055227 0.24673648
0.50827185 0.00362753 0.74345267
0.48679444 0.50667819 0.25434175
0.49414751 0.49476489 0.74732101
0.25590615 0.00776887 0.01160699
0.25407856 0.01400831 0.51079112
0.26133186 0.49151182 0.00048571
0.24402683 0.50876128 0.49689908
0.76722944 0.98747600 0.00067710
0.73579743 0.00946833 0.49028599
0.74230778 0.49359418 0.99354028
0.74673982 0.50063795 0.48816474
0.00811442 0.25179425 0.99902331
0.99198812 0.25048385 0.50846685
0.00975538 0.73844971 0.99562563
0.99799834 0.75121570 0.50176757
0.50673705 0.24321350 0.00504991
0.49213523 0.24979863 0.50970537
0.49567182 0.75824006 0.00778513
0.49231181 0.75075928 0.49588790
0.25741500 0.26057657 0.25824445
0.24876613 0.25004049 0.75431435
0.25551602 0.75934128 0.26453168
0.24709293 0.75560405 0.75876470
0.75562861 0.25772460 0.24599950
0.74243892 0.25642838 0.74821412
0.76036584 0.74890874 0.23688161
0.74288289 0.73821267 0.73783126
Direct configuration=      2
0.15586451 0.02332874 0.35898488
0.15986338 0.08449037 0.75534453
0.12198972 0.73552364 0.38063804
0.15619751 0.72801886 0.91290587
0.61741008 0.03061444 0.33965677
0.63073826 0.01151788 0.89917113
0.60894365 0.63241028 0.48136476
0.61056583 0.63064991 0.75985039
0.25643088 0.37809137 0.37779492
0.40210903 0.34027831 0.77509784
0.24667731 0.90029815 0.33967655
0.34441754 0.00063754 0.86324410
0.82573342 0.35947161 0.49112585
0.76744435 0.38677203 0.86413247
0.84615574 0.97940906 0.32858857
0.87997959 0.84013855 0.76268302
0.38845382 0.03289005 0.06215636
0.34907992 0.10188620 0.74451187
0.35748886 0.74737591 0.13734602
0.35920191 0.51392401 0.65395347
0.85260859 0.12831822 0.99938851
0.86239769 0.98922292 0.61982721
0.76277260 0.60548279 0.13340822
0.76320449 0.60894453 0.64093125
0.15650268 0.49046666 0.15466766
0.11830974 0.49790754 0.64529588
0.13096036 0.89621296 0.24556518
0.15645645 0.97603127 0.65000431
0.58986161 0.49673047 0.11341049
0.64689397 0.49435858 0.66557840
0.60696374 0.88255365 0.02142613
0.62321472 0.88734201 0.49431764
0.37490345 0.17011947 0.01813379
0.26512771 0.12495440 0.57654436
0.48599468 0.65274240 0.16449800
0.36606302 0.64203326 0.50820749
0.88268968 0.24449698 0.09658884
0.86471554 0.12468281 0.51096442
0.85554986 0.63074127 0.99375237
0.88265382 0.60513934 0.50968745
0.37655014 0.50270054 0.39689610
0.49757467 0.37241358 0.86851679
0.31239759 0.84978933 0.47565611
0.38039694 0.87314864 0.99335660
0.96776166 0.39398338 0.42425033
0.90189448 0.26588512 0.84503193
0.98660866 0.90106296 0.38569388
0.75222293 0.85187174 0.87097108
0.11786248 0.37235327 0.00925122
0.24571284 0.36397384 0.62640530
0.10727909 0.97488892 0.10261378
0.10208552 0.90613375 0.52842495
0.62314732 0.39525046 0.01499740
0.59901438 0.40773829 0.51683400
0.74338874 0.89211652 0.15029014
0.63599921 0.77007984 0.61897662
0.11189377 0.10348135 0.48580502
0.11486956 0.00096970 0.88964265
0.10092675 0.58879509 0.48447946
0.16161640 0.59997858 0.75499961
0.58395376 0.10285378 0.49643049
0.64606147 0.14406517 0.98709504
0.62461411 0.75892591 0.37720392
0.72368129 0.61264343 0.87002892
0.01940775 0.39631306 0.11714809
0.14070046 0.35758189 0.51917115
0.02423266 0.83381598 0.16604022
0.00336048 0.87850257 0.62731410
0.51426826 0.37026572 0.12733055
0.50799178 0.39699194 0.60919527
0.62168749 0.77218808 0.13856593
0.51760838 0.87519824 0.59696835
0.35566577 0.41742967 0.27593880
0.36406883 0.24954447 0.90906594
0.36990755 0.99516468 0.39755823
0.50083602 0.86903788 0.88051471
0.85814069 0.48664482 0.40163665
0.87264681 0.36467312 0.98284497
0.91413517 0.85602498 0.26684733
0.84788340 0.97092451 0.83407756
0.01225218 0.09100456 0.38741336
0.00337363 0.10134225 0.88997333
0.24187175 0.64249071 0.37666844
0.02608942 0.64889608 0.83930729
0.49655874 0.15421423 0.37083309
0.51694088 0.10385526 0.89747464
0.49193063 0.64118159 0.34694809
0.59386470 0.51420468 0.90556811
0.49158975 0.11203421 0.13359123
0.36133175 0.99472656 0.64031914
0.44771977 0.60874637 0.04489426
0.48484821 0.60067162 0.58802219
0.98879396 0.12001570 0.10711695
0.97730866 0.09737056 0.62231434
0.89241897 0.52956566 0.09782052
0.89547805 0.52311646 0.62045671
0.09355786 0.26079070 0.14763495
0.12822560 0.25571111 0.62934021
0.11698087 0.86508675 0.02088033
0.14214686 0.74642762 0.58892933
0.66191223 0.27202331 0.08280474
0.61387313 0.27473631 0.59121529
0.63112203 0.90053422 0.24790592
0.60294659 0.88238659 0.72833044
0.39947922 0.23574361 0.16503014
0.40319031 0.10217910 0.51567813
0.34648402 0.51410748 0.14875617
0.36957799 0.72948235 0.63361410
0.88820793 0.15835565 0.22362558
0.87977286 0.22937059 0.65316839
0.98777207 0.63356874 0.13008203
0.98438956 0.64614785 0.64169017
0.49182255 0.39924903 0.39858107
0.36845207 0.36656103 0.00440472
0.48027926 0.91072295 0.38166751
0.36045039 0.77217127 0.88087864
0.89771706 0.37309563 0.26364107
0.98563549 0.36000378 0.87035024
0.86108544 0.76513812 0.38815718
0.87392950 0.87293563 0.98978874
0.06590305 0.23302860 0.36477446
0.11435840 0.08506847 0.99136394
0.15350958 0.51140466 0.35930386
0.14269551 0.50064203 0.88069414
0.65489339 0.25246688 0.38064973
0.61901579 0.24452225 0.87251152
0.64363297 0.62248411 0.25460981
0.66854398 0.66763955 0.97445020
0.39751985 0.29048790 0.33886654
0.27902953 0.37147445 0.83397791
0.34812715 0.92186269 0.26282050
0.38426458 0.86782249 0.76533558
0.75547296 0.40867509 0.34869902
0.90026318 0.48593117 0.90255602
0.77054328 0.88060917 0.36150757
0.98994658 0.85727197 0.85163158
0.35839133 0.09808194 0.23225877
0.46967483 0.14811279 0.65511982
0.28952452 0.63121421 0.04690739
0.40541660 0.63480795 0.74901884
0.89766093 0.00496333 0.09906078
0.85616481 0.08682788 0.73892073
0.86363885 0.61629226 0.22881848
0.87890017 0.62665882 0.73148572
0.11817473 0.13711973 0.26323754
0.10882639 0.23557401 0.85906571
0.09804932 0.64624594 0.26034592
0.09986930 0.60429571 0.98034037
0.61812088 0.15113227 0.27595094
0.59638670 0.14662981 0.76707307
0.64185509 0.53168617 0.36353910
0.51876356 0.62935335 0.89063012
0.11738696 0.36005996 0.24022298
0.99933411 0.35999884 0.64930579
0.15064089 0.76188284 0.12365448
0.10547111 0.82664474 0.73456278
0.59720591 0.32657284 0.22039344
0.61028357 0.32552342 0.72440124
0.51126711 0.86502908 0.15740806
0.60929069 0.99599910 0.61974539
0.35248404 0.36729430 0.48686086
0.38327303 0.48101824 0.91170584
0.39972498 0.78862747 0.36254318
0.26193078 0.86780938 0.90452458
0.83517400 0.26530039 0.38635220
0.84331445 0.41325934 0.76699883
0.87035839 0.88748346 0.48191937
0.86516814 0.74647171 0.88695006
0.24616851 0.35594465 0.11596911
0.10925032 0.36290536 0.73869124
0.23502490 0.87494666 0.12667667
0.24307267 0.84060084 0.59435807
0.74267501 0.40649683 0.13571437
0.74151954 0.37198875 0.61789249
0.61177960 0.99327343 0.11998491
0.73030541 0.88703963 0.64972338
0.25687609 0.15212196 0.10859548
0.36833672 0.23259617 0.59260157
0.34787877 0.62146481 0.24939264
0.25626157 0.61219813 0.64273416
0.75412460 0.11785122 0.13297857
0.74847421 0.10142589 0.63557147
0.86663046 0.73435072 0.09852957
0.86318719 0.74237026 0.59719967
0.23310220 0.16322364 0.39421489
0.22024020 0.15277720 0.90463227
0.00575689 0.61523141 0.37371018
0.24783502 0.59826499 0.86085191
0.72361058 0.12591212 0.40419021
0.74612116 0.11636264 0.86081379
0.73077551 0.66589201 0.37815661
0.60536324 0.73983269 0.85189546
0.00750284 0.99025014 0.99312227
0.99861196 0.98201446 0.49847498
0.00925326 0.50193206 0.01027198
0.99244379 0.49507320 0.50563279
0.50791000 0.98900969 0.01302258
0.50558212 0.99153841 0.50741962
0.50830472 0.49189860 0.00502163
0.51819454 0.50164179 0.51058738
0.00008732 0.24644560 0.23765706
0.00014340 0.25851467 0.76197891
0.99234057 0.73559470 0.24528790
0.98450294 0.74259080 0.75044249
0.50101419 0.23875423 0.25363657
0.50806284 0.24389723 0.75224685
0.52205865 0.77018753 0.24884763
0.50293336 0.73910973 0.75759316
0.23767843 0.01136133 0.23916671
0.25538436 0.00328154 0.76499658
0.24943924 0.50075964 0.25956026
0.25405010 0.51730385 0.74777243
0.75222409 0.00496636 0.24672487
0.75689989 0.98466418 0.74389000
0.74069657 0.50350174 0.24532845
0.75201868 0.50868672 0.74100046
0.25968454 0.25834435 0.00446683
0.26049147 0.27049081 0.49376753
0.25747936 0.75149159 0.01952757
0.23493230 0.74387580 0.50355108
0.75434956 0.23884233 0.99469875
0.73903719 0.24779586 0.49996624
0.77175311 0.74759131 0.98319083
0.74334585 0.76325630 0.47077212
0.12109936 0.13724036 0.37948044
0.11557774 0.11448003 0.87646798
0.12924960 0.62674227 0.37612307
0.13916254 0.61730190 0.86931883
0.61139700 0.13949946 0.39223790
0.62907660 0.12424642 0.87487144
0.61439162 0.64283343 0.36903697
0.61955622 0.62247545 0.87197984
0.37396170 0.38550548 0.38469828
0.38469034 0.37072584 0.88905974
0.36172794 0.88896373 0.37418735
0.37373530 0.87909669 0.88211130
0.85681855 0.37430636 0.37476936
0.87790220 0.37927023 0.86698585
0.87861597 0.87172064 0.37020042
0.86605783 0.86635388 0.87221152
0.37841413 0.12945679 0.13578257
0.36691977 0.11842371 0.62993769
0.36786597 0.63034754 0.13016169
0.37696475 0.62145652 0.62316756
0.88202942 0.12277319 0.11848698
0.86354536 0.12363864 0.62569137
0.86912629 0.62958714 0.11599420
0.87307841 0.63182528 0.61956436
0.13047443 0.37383880 0.13088343
0.12440240 0.37765357 0.62720387
0.12553835 0.87055539 0.13281883
0.11796482 0.86266897 0.62868553
0.62739338 0.38512361 0.12467545
0.62333664 0.37611306 0.62239830
0.62756237 0.88036560 0.13364163
0.62496910 0.87406729 0.61453124
0.04230793 0.43179941 0.30289176
0.06115003 0.44197684 0.80910262
0.06212485 0.95680654 0.31493053
0.06463788 0.94225894 0.80446669
0.56206039 0.44771821 0.30317291
0.57901346 0.43789582 0.80278827
0.55644715 0.94743170 0.30428728
0.55825140 0.94434798 0.81307720
0.44206356 0.05471994 0.31725966
0.43670091 0.04927028 0.81082120
0.42887900 0.55281843 0.30574047
0.44831261 0.53889687 0.82869868
0.93575065 0.06329311 0.28394183
0.94120691 0.05155070 0.80491179
0.93899264 0.54381216 0.30184707
0.94068893 0.55767959 0.81617357
0.43825291 0.45171358 0.18419068
0.44339794 0.42920222 0.71134764
0.44446819 0.96481004 0.17241722
0.45100399 0.92265886 0.68827726
0.93824792 0.44144698 0.18217946
0.93763213 0.44421522 0.70586043
0.96205673 0.92918065 0.19265246
0.94052544 0.93825725 0.69573756
0.07010463 0.05194974 0.18547902
0.06359977 0.04664995 0.68507056
0.05244107 0.55832209 0.18695670
0.05453388 0.55923670 0.69866089
0.55943285 0.07243335 0.20670561
0.54744421 0.05419913 0.69674389
0.55048903 0.57316182 0.19698558
0.55691535 0.54826786 0.69148683
0.29112017 0.07867928 0.46165402
0.30421339 0.07499119 0.95160588
0.30368307 0.57405173 0.44491243
0.31245659 0.55741730 0.95079129
0.81459206 0.05153921 0.44727017
0.80860372 0.04557140 0.92643071
0.78544904 0.56686352 0.43689176
0.79948779 0.54967928 0.92930046
0.30081240 0.44509794 0.06619924
0.30478887 0.45051737 0.56500197
0.31456903 0.94708872 0.06403860
0.31558562 0.93327217 0.54451621
0.81271385 0.45021563 0.05048619
0.79975452 0.45286138 0.55707800
0.81143300 0.94325207 0.05717308
0.78738148 0.93647717 0.55390420
0.19215780 0.44592732 0.44330702
0.20611934 0.43241466 0.93481455
0.18676847 0.93264791 0.44795352
0.19493312 0.94033304 0.95700876
0.68176856 0.44912605 0.43733392
0.69380879 0.43969489 0.93975723
0.68648533 0.96028488 0.42819147
0.69309366 0.92542305 0.94320944
0.19361063 0.05509966 0.07487174
0.19224573 0.04180494 0.56464724
0.19188679 0.54910797 0.05496080
0.17907727 0.56112443 0.56096392
0.69589558 0.05227717 0.04871762
0.68717220 0.05977277 0.54775612
0.68649269 0.56411326 0.05045574
0.68337707 0.57178960 0.55140745
0.43693025 0.29782022 0.06112009
0.43439384 0.31711411 0.55480794
0.45398857 0.80505737 0.06782581
0.43327432 0.81056811 0.56259089
0.95633347 0.32263228 0.05092251
0.92391347 0.29826131 0.55706620
0.95722374 0.80809490 0.06066001
0.92524416 0.81378287 0.54945779
0.04397162 0.30924179 0.45138359
0.06610961 0.30158439 0.93711121
0.05393378 0.81496675 0.45105950
0.06330943 0.80279154 0.93487996
0.56169015 0.30536763 0.45690267
0.56244554 0.31224082 0.95651357
0.53499994 0.82637818 0.42636247
0.56958909 0.80137834 0.94492220
0.42009585 0.19767740 0.44756350
0.45234772 0.19184613 0.93350456
0.43649678 0.69564820 0.43547462
0.43471603 0.69574532 0.93983919
0.93949506 0.19046950 0.43463449
0.95080840 0.19620866 0.93914662
0.94723487 0.68585034 0.44185549
0.94998822 0.67594881 0.93683456
0.07634763 0.18787820 0.05162692
0.04776268 0.18065294 0.56275072
0.06784111 0.69454240 0.05607112
0.04400292 0.69149962 0.56841708
0.56325599 0.18795926 0.06108076
0.53320521 0.18721845 0.56276122
0.55646604 0.68382274 0.04744880
0.55015106 0.71018839 0.54764480
0.31765141 0.31538839 0.21297827
0.31824244 0.30590221 0.70205075
0.30400459 0.81889522 0.20533240
0.30960952 0.80906045 0.68966613
0.81896394 0.30015577 0.18834053
0.80259652 0.30503457 0.68849566
0.82100445 0.81123261 0.19510397
0.81214738 0.80779486 0.68169901
0.32597800 0.19258965 0.31183750
0.30624332 0.20313671 0.82108598
0.31013521 0.71231403 0.32425904
0.31410334 0.69309808 0.80502327
0.79322405 0.18336853 0.30303802
0.80672622 0.19415105 0.80664984
0.80898606 0.68877421 0.30308725
0.79858238 0.68901478 0.80123229
0.19695413 0.19265126 0.20046836
0.21531163 0.19652158 0.67713365
0.20548323 0.68198606 0.20550914
0.19065202 0.70268502 0.68552202
0.68530014 0.20348729 0.17852193
0.68424338 0.18939864 0.69076572
0.70740955 0.69547208 0.17821286
0.69401823 0.69618993 0.67928430
0.19475962 0.29904955 0.32668736
0.18361062 0.30340578 0.80547218
0.17693819 0.81258078 0.30761042
0.19058615 0.79945426 0.81671034
0.69431507 0.32232092 0.28769375
0.68467342 0.31193963 0.80263755
0.69037924 0.80740845 0.29016244
0.68365131 0.80310596 0.78223888
0.00461681 0.00396523 0.24174277
0.00503465 0.99592395 0.74685897
0.99511849 0.49083144 0.24568123
0.99971683 0.49916537 0.75278586
0.49634646 0.01205715 0.25129734
0.49071740 0.99220788 0.75236361
0.49849845 0.49992286 0.24884235
0.50621186 0.49083209 0.76177354
0.25170444 0.00557929 0.00735851
0.24850717 0.99065572 0.49939741
0.24653827 0.49410297 0.99886198
0.24754857 0.50873930 0.50691477
0.75073019 0.99141822 0.99547856
0.74526444 0.00346520 0.49327947
0.74342004 0.50461630 0.99461009
0.72882646 0.50743056 0.49846760
0.01007005 0.24834084 0.99505190
0.98507975 0.24549090 0.50298775
0.00820630 0.74679855 0.99538387
0.99701134 0.75284403 0.50330458
0.50342817 0.24837733 0.00944460
0.48466504 0.25281558 0.50014707
0.49778146 0.74640892 0.99765554
0.48621864 0.76330655 0.49140383
0.25755787 0.24718193 0.26071460
0.25209086 0.25025496 0.75081315
0.24279885 0.75213575 0.26046499
0.25227789 0.75300470 0.74774455
0.75033602 0.25084381 0.23850233
0.74732727 0.24900527 0.74787822
0.75839783 0.75071448 0.24461737
0.75160292 0.75432289 0.74042750
Direct configuration=      3
0.18727921 0.02658354 0.35860609
0.14049741 0.08498081 0.77377181
0.12616390 0.73285445 0.36490706
0.15739774 0.73273130 0.90043404
0.61516922 0.01850984 0.36313966
0.62354528 0.01018322 0.84733940
0.59589525 0.59657607 0.47925915
0.60576103 0.64924776 0.76347902
0.26535998 0.36239350 0.38540505
0.41298401 0.33618497 0.77146833
0.25589004 0.90767398 0.31382328
0.34012180 0.97589762 0.85939703
0.83744938 0.36323087 0.48401383
0.75755653 0.38986172 0.86248036
0.84557214 0.98554918 0.34992504
0.87663975 0.84987420 0.75472046
0.39977304 0.02289680 0.08848865
0.34976158 0.08517608 0.74125084
0.33696003 0.73729634 0.12855679
0.37514971 0.51915310 0.64834520
0.83723409 0.14709265 0.98837057
0.85988819 0.01125786 0.61843608
0.76770065 0.60650808 0.14247050
0.75407861 0.60431129 0.64160608
0.16069924 0.49054072 0.17020995
0.10390691 0.47841045 0.65032344
0.12499730 0.92737362 0.22433071
0.13648998 0.95494307 0.68676578
0.65071515 0.48946692 0.13060307
0.62206418 0.48662240 0.66988608
0.63189889 0.88229497 0.01227313
0.62246415 0.87707837 0.50149218
0.35579917 0.18231567 0.03618274
0.24131309 0.13333566 0.62412138
0.47485226 0.69232746 0.15975515
0.34248659 0.66136020 0.53233595
0.86375290 0.24025602 0.10685439
0.85379121 0.15103925 0.50417793
0.86672452 0.63683359 0.01568612
0.90418910 0.61043836 0.51469969
0.37744548 0.50408133 0.39301466
0.49231229 0.39421743 0.90029422
0.30076040 0.87145586 0.45568429
0.39579558 0.90763166 0.99096996
0.98216626 0.35897159 0.38492440
0.86359167 0.26129096 0.86551140
0.99494590 0.88451537 0.36878363
0.76677471 0.86013923 0.88360857
0.11121132 0.40455159 0.02871453
0.23907162 0.35952644 0.61085351
0.10145008 0.98103469 0.09447770
0.09907724 0.90586382 0.51508010
0.65909101 0.36001400 0.01090833
0.61241375 0.39146156 0.51027698
0.73764170 0.87556976 0.13544707
0.59797981 0.76718830 0.63643855
0.09178201 0.10995886 0.49733013
0.12367922 0.00409993 0.87470260
0.12373837 0.60229708 0.48477492
0.13981974 0.61095163 0.77348697
0.60442445 0.11989233 0.48689404
0.64981380 0.15200971 0.97120904
0.62295790 0.73697620 0.37130833
0.76066527 0.60388447 0.84624389
0.01274029 0.40198830 0.12320353
0.09720591 0.39046807 0.51993374
0.01711246 0.86216427 0.14664995
0.01143523 0.85905006 0.65367359
0.51885378 0.39039143 0.10882927
0.50562193 0.41134481 0.60385554