Li192 P32 S160 I32
1.0
20.433000 0.000000 0.000000
0.000000 20.433000 0.000000
0.000000 0.000000 20.433000
Li I S P
192 32 160 32
Direct configuration=      1
0.15081886 0.01437696 0.35116147
0.10334102 0.13950606 0.76255759
0.14576779 0.74038771 0.40189261
0.14998617 0.73460389 0.89830912
0.64074837 0.01940190 0.34853505
0.62169760 0.00891777 0.88676548
0.63263926 0.64440633 0.48620391
0.61172152 0.63452996 0.75717512
0.25710372 0.39092565 0.36563020
0.39798217 0.34966914 0.76134560
0.26198485 0.88797576 0.35813556
0.38274765 0.98863124 0.88413154
0.85333828 0.36035924 0.48657089
0.76032920 0.35187078 0.89447375
0.85252491 0.98729921 0.34716003
0.89443010 0.85140810 0.75884928
0.40000839 0.01810686 0.09869073
0.34800789 0.10686053 0.74114870
0.35985689 0.73786694 0.11055945
0.35199822 0.51231792 0.64855011
0.85645812 0.13845536 0.01059334
0.86205701 0.00957851 0.63123255
0.76126278 0.60770011 0.13507968
0.76055607 0.60569959 0.63173669
0.15151725 0.48879795 0.14349652
0.14141155 0.48686234 0.64577888
0.10988113 0.85349945 0.23768844
0.14849292 0.98337751 0.65576551
0.63404967 0.48986417 0.14056768
0.64697620 0.48634258 0.64662066
0.61273151 0.88886724 0.01283049
0.64584737 0.85935225 0.50852215
0.36623855 0.14856762 0.01373544
0.25937062 0.14046587 0.60547129
0.48064941 0.65208161 0.16885380
0.35132161 0.64896026 0.51213972
0.85256832 0.23670736 0.10955991
0.85330350 0.14605906 0.51343031
0.85346968 0.64141974 0.00943618
0.89285502 0.61132171 0.50933211
0.39460649 0.48939515 0.40002011
0.49255606 0.36051545 0.86617402
0.34807974 0.85188908 0.48265273
0.35599909 0.86225874 0.99111817
0.98936175 0.39291793 0.39951021
0.89236859 0.26159889 0.85411337
0.98872308 0.89080164 0.38568739
0.76239080 0.84906315 0.88458737
0.11348082 0.38948130 0.00920589
0.23540367 0.36408882 0.62235014
0.10885473 0.98573325 0.11017769
0.11045709 0.89997848 0.51353706
0.61111747 0.39431903 0.01395326
0.61217345 0.39495330 0.50748017
0.73904449 0.89978745 0.14188721
0.63118782 0.76186403 0.61278639
0.11206995 0.10690571 0.48936836
0.14831451 0.01307550 0.84962879
0.09658623 0.60082962 0.48573516
0.12519668 0.62583956 0.76017933
0.59843984 0.10259729 0.48274398
0.64609419 0.14348465 0.98719381
0.60254317 0.74068488 0.35114752
0.73415839 0.60083272 0.84961802
0.01246900 0.39675977 0.10931351
0.14349758 0.35294413 0.51277093
0.01413953 0.85501520 0.13554864
0.01165951 0.88407011 0.61493002
0.51548766 0.36595435 0.13160834
0.51070717 0.39567747 0.60705083
0.64762021 0.76589954 0.10588480
0.50809233 0.89263897 0.59947486
0.35532209 0.40048155 0.26328290
0.35595048 0.26363959 0.89575212
0.36385383 0.99430196 0.36917288
0.48942910 0.88814733 0.89587682
0.88938168 0.49154903 0.38987923
0.87444505 0.36631345 0.98774823
0.89652776 0.84925661 0.26429153
0.85047252 0.97962916 0.84959378
0.00938018 0.09946755 0.39080949
0.00947375 0.10084905 0.89412428
0.23887217 0.63019632 0.37814522
0.01392390 0.64324982 0.85465907
0.51047594 0.14771016 0.35828469
0.51474333 0.10705601 0.89178695
0.50654546 0.63222464 0.36038492
0.60208108 0.51379679 0.89225800
0.49075119 0.14262759 0.14489182
0.36546188 0.00984804 0.63594352
0.45676027 0.61336819 0.03233770
0.48277953 0.59578719 0.59431348
0.98829450 0.13976811 0.13040220
0.98485950 0.09963227 0.60474649
0.89864561 0.51553836 0.09892957
0.89246763 0.51408755 0.61082947
0.10099444 0.26526290 0.14126212
0.10713755 0.25988257 0.63750772
0.11791961 0.88292902 0.00944899
0.14114536 0.76261321 0.59769567
0.65156480 0.26546116 0.10022087
0.62940040 0.26144706 0.60945664
0.63585545 0.89053129 0.23986295
0.59427328 0.85436918 0.73209744
0.38990979 0.24077326 0.14966608
0.40064252 0.10207478 0.51775839
0.38661502 0.50926605 0.11193773
0.39479591 0.73714123 0.63871655
0.89480551 0.14370059 0.23650702
0.89812002 0.23586884 0.64895118
0.98720197 0.64737792 0.14312885
0.98183062 0.65491356 0.64812152
0.48582783 0.37466467 0.37488918
0.38479455 0.38031357 0.98764666
0.48590341 0.90181071 0.40219592
0.35543672 0.76074056 0.89164003
0.90752543 0.35497974 0.26424130
0.98588897 0.36756160 0.86173467
0.85396115 0.76518181 0.39648028
0.86295086 0.85901535 0.98682470
0.09680968 0.23546970 0.35821700
0.11290145 0.10476010 0.98821994
0.13920495 0.51594754 0.35651935
0.13208722 0.51002980 0.86403191
0.64629697 0.24225759 0.39777195
0.60508386 0.23415566 0.85163637
0.64278730 0.60481944 0.26293914
0.64180556 0.64246115 0.98583378
0.37831450 0.26362427 0.36318777
0.26736507 0.39705487 0.84564682
0.37166700 0.89016230 0.26007398
0.40139542 0.85201917 0.76787706
0.76754701 0.40125708 0.34528540
0.89594971 0.48655803 0.89690258
0.76012117 0.87858805 0.37278831
0.98666580 0.89627252 0.89557999
0.34977150 0.09988617 0.23519864
0.48316542 0.14902168 0.65531519
0.29198446 0.62651301 0.04226568
0.39141136 0.63726596 0.73693949
0.90348392 0.01258875 0.10105415
0.86458680 0.10908603 0.73842657
0.85849123 0.60481141 0.23658545
0.85891566 0.61157708 0.73532874
0.11276141 0.13309152 0.26114053
0.11179454 0.23690034 0.86891527
0.12031216 0.64387236 0.25986529
0.09910828 0.59841382 0.98644762
0.61474751 0.15246145 0.26014717
0.64280452 0.10450612 0.76074415
0.60706774 0.51552689 0.39475172
0.51001557 0.64680324 0.85982792
0.13102626 0.37999866 0.23830051
0.01091432 0.39650407 0.60023417
0.15379537 0.76145476 0.10405885
0.10368040 0.84299165 0.73682775
0.60947527 0.35508148 0.23929689
0.60538168 0.35422216 0.73247265
0.51509953 0.85308509 0.15099205
0.60875910 0.99025683 0.60584839
0.35321460 0.35737329 0.48851747
0.39681474 0.48695999 0.88975839
0.39853082 0.76849649 0.35092318
0.26688586 0.89763509 0.84853429
0.86198319 0.26328721 0.38607193
0.84550617 0.40342187 0.76330514
0.88699629 0.89857270 0.48779304
0.89450216 0.75592908 0.86112715
0.23606925 0.34643150 0.10160756
0.10615283 0.35972286 0.73770094
0.23782010 0.89989308 0.14796087
0.23979381 0.86737333 0.61907949
0.74291492 0.39502817 0.14536015
0.73881415 0.36484069 0.61120241
0.60411632 0.99130095 0.10855322
0.73075028 0.89779908 0.65135095
0.26271240 0.14582017 0.10855819
0.36065926 0.23787215 0.61167092
0.31999502 0.61161521 0.21845787
0.25953477 0.62993237 0.62670418
0.76595279 0.09509900 0.15127410
0.76002579 0.11792862 0.63378191
0.85906694 0.73838790 0.11598339
0.84467463 0.73694002 0.59695820
0.23298804 0.15326439 0.39942342
0.23376888 0.14336272 0.89546025
0.01209795 0.65245380 0.35384320
0.24041940 0.60505418 0.85820804
0.73829687 0.13366841 0.38559314
0.74179622 0.12963472 0.87850239
0.73484022 0.64502885 0.38634318
0.63665677 0.73849969 0.87748905
0.01089905 0.99772785 0.00086867
0.00124203 0.99523791 0.50049970
0.99985988 0.49015972 0.00003490
0.98884557 0.50049997 0.49874824
0.50935461 0.99643069 0.99144523
0.50099320 0.00099820 0.50500903
0.49664880 0.48808700 0.99531794
0.50386538 0.49251741 0.49443678
0.00465760 0.24128112 0.24587124
0.00763776 0.25209248 0.75405768
0.00585717 0.75117767 0.24370643
0.99561222 0.74644282 0.75514598
0.50343574 0.24949262 0.24728718
0.50544062 0.25811388 0.75366367
0.50040605 0.75446909 0.25506652
0.49683430 0.74366880 0.75076034
0.25789116 0.99323502 0.25855680
0.25237804 0.99908024 0.75078885
0.24271733 0.49366491 0.25646734
0.24139124 0.50666544 0.74995804
0.74452661 0.99411596 0.25319441
0.75640554 0.01073449 0.74091190
0.74567002 0.50668050 0.23912259
0.75232791 0.51113803 0.74043137
0.26000738 0.24195402 0.00119069
0.25178959 0.25458899 0.51054324
0.25738339 0.75386269 0.00081688
0.24826773 0.75004864 0.50375974
0.75558347 0.24408370 0.99933888
0.75601215 0.25044029 0.49275310
0.75031701 0.74773968 0.99826221
0.74134674 0.74824906 0.49473082
0.12227587 0.12383426 0.37593771
0.12175500 0.12272916 0.87513844
0.12393807 0.62919746 0.37509425
0.12641387 0.62331885 0.87509336
0.62415338 0.13140529 0.37324353
0.62815479 0.12277579 0.87447679
0.62111905 0.62827962 0.37310054
0.62284731 0.62588185 0.87262548
0.37115695 0.37752497 0.37579737
0.37807003 0.37440662 0.87300272
0.37549893 0.87977923 0.37438363
0.37650071 0.87402046 0.87835883
0.87759396 0.37716910 0.37443698
0.87240661 0.37427718 0.87344948
0.87469902 0.87673006 0.37504776
0.87535047 0.86901785 0.87276606
0.37715730 0.12833078 0.12640985
0.37218158 0.12454841 0.62865805
0.37983439 0.62375774 0.11891871
0.37372686 0.62409625 0.62385616
0.87527932 0.12367702 0.12398937
0.87449323 0.12414628 0.62502452
0.87408078 0.62558090 0.12291470
0.87303561 0.62706405 0.62155842
0.12561729 0.37666118 0.12349350
0.12172092 0.37385163 0.62457736
0.12723213 0.87289058 0.12434487
0.12523312 0.87350667 0.62560903
0.62928659 0.37596444 0.12673177
0.62498007 0.37561945 0.62031668
0.62575057 0.87828093 0.12588558
0.62094024 0.87589247 0.62114631
0.05623372 0.44257025 0.30891012
0.05646132 0.44365120 0.80520975
0.06092876 0.94238466 0.30591634
0.05933364 0.93729471 0.80600158
0.55787946 0.44305691 0.30792685
0.56049582 0.44184403 0.80430568
0.55527868 0.94471429 0.31012933
0.55856297 0.94110259 0.80840718
0.44134033 0.06293427 0.30615696
0.44180765 0.05847269 0.80744523
0.43408439 0.55546743 0.30424113
0.44437313 0.55804884 0.80745489
0.94103941 0.05525534 0.30462044
0.94124021 0.05170873 0.80999227
0.94419250 0.56253181 0.30803901
0.93939675 0.55804888 0.80791554
0.44239096 0.43860142 0.19114982
0.43938904 0.44114188 0.69199062
0.44639330 0.94807543 0.18708556
0.44298587 0.93837134 0.69363113
0.94148987 0.44654061 0.19205906
0.93986340 0.44053007 0.69178006
0.94319557 0.93743375 0.19039669
0.93999961 0.93936921 0.69173071
0.05640440 0.05711375 0.18869394
0.05667261 0.05458033 0.69138692
0.06087959 0.56015531 0.19201510
0.05267341 0.56022298 0.68840691
0.56296774 0.06225313 0.19546982
0.55634776 0.05796294 0.69151169
0.55378181 0.56002182 0.19295345
0.55527949 0.55627583 0.68598845
0.30574541 0.06512833 0.44718847
0.31075807 0.06213300 0.94488694
0.30578250 0.55803563 0.44507053
0.31142268 0.55516187 0.94313763
0.81025897 0.05622760 0.44130692
0.81206792 0.05361478 0.93900770
0.80605072 0.56209398 0.43926966
0.80660236 0.55754139 0.93802099
0.30595496 0.43706496 0.05733586
0.30339978 0.44283801 0.56127847
0.31096158 0.94562955 0.06099151
0.30961204 0.94159509 0.55581924
0.80884183 0.44282830 0.05524898
0.80708718 0.44594761 0.55587021
0.81352752 0.94179544 0.05832616
0.79907425 0.93965104 0.55701099
0.18622444 0.44448225 0.44496190
0.19505861 0.43693763 0.93583885
0.19348750 0.94392902 0.44040293
0.19709040 0.94419111 0.94062589
0.69498187 0.44223207 0.43510100
0.69115651 0.44163781 0.93825588
0.68663734 0.94760086 0.43777664
0.69775913 0.93639487 0.94167060
0.19377420 0.05774596 0.06095258
0.18931426 0.05358672 0.56227834
0.19329149 0.55548524 0.05281007
0.18718951 0.56037755 0.55971471
0.69573565 0.05573440 0.05659379
0.69000811 0.06306795 0.55357671
0.68952549 0.55656843 0.05423345
0.68588180 0.55643761 0.55252206
0.44496495 0.30506004 0.05905586
0.44065282 0.30936930 0.55844956
0.44446671 0.81128123 0.05976921
0.43654345 0.80903824 0.55389534
0.94326174 0.30430205 0.06221804
0.93897081 0.30575546 0.55791836
0.94223326 0.80418649 0.05628252
0.93691515 0.80947592 0.55711112
0.05694187 0.30585576 0.44456245
0.05456136 0.30987492 0.94135505
0.05764310 0.81176526 0.44452840
0.05820383 0.80516995 0.93914398
0.55687939 0.30696182 0.44284375
0.56552281 0.30610390 0.94450390
0.55595879 0.80905924 0.44129639
0.56226770 0.80609043 0.94419954
0.43740273 0.19294252 0.44234487
0.44752721 0.19334280 0.93983030
0.43779795 0.69367230 0.43872533
0.44120858 0.69330723 0.94576300
0.94080745 0.18915345 0.44070747
0.94116237 0.19100066 0.94116852
0.94038334 0.69566417 0.43927543
0.94493116 0.68556790 0.94340127
0.06146950 0.19190868 0.05417435
0.05427013 0.18762670 0.55867753
0.06261446 0.69116195 0.05741662
0.05344887 0.69208727 0.55669428
0.56250303 0.19067465 0.05964520
0.55224963 0.18830604 0.55776795
0.55572400 0.69025181 0.06140353
0.55097589 0.69163126 0.55794236
0.30459771 0.31098205 0.19618711
0.30755402 0.30697740 0.69542608
0.31002093 0.81191184 0.19307240
0.31233304 0.80833136 0.69533223
0.81491714 0.31082481 0.19511627
0.80921995 0.30931494 0.69097757
0.80667699 0.81149614 0.19202059
0.80591530 0.80819486 0.68722183
0.30412808 0.18919077 0.30742720
0.30524563 0.19251039 0.81183251
0.31306315 0.69362181 0.30763513
0.30817242 0.68983200 0.80743970
0.81048281 0.19075365 0.30716932
0.80907881 0.19273500 0.80430972
0.80980010 0.69377610 0.30650091
0.80360804 0.69344735 0.80683749
0.18910447 0.19462905 0.19056935
0.19021124 0.19117928 0.69369022
0.20425672 0.68871292 0.18870099
0.18960417 0.69831880 0.69166580
0.69894686 0.19464090 0.18748916
0.68947713 0.19408960 0.69046216
0.69274400 0.69204305 0.19064831
0.69122919 0.69062845 0.68698732
0.18790047 0.30496413 0.31268669
0.19029622 0.30887858 0.80995865
0.19211358 0.80525219 0.30850372
0.19453409 0.80859411 0.81119025
0.69618230 0.30899099 0.30785837
0.69167981 0.30856319 0.80634533
0.69119122 0.80743750 0.30761581
0.68799258 0.81060427 0.79954115
0.00031259 0.99733999 0.24728365
0.99990358 0.99582945 0.75011131
0.00139440 0.50331331 0.24987528
0.99685275 0.50140599 0.74785930
0.50107509 0.00433475 0.25018078
0.49980207 0.99901537 0.75051895
0.49706625 0.49955649 0.25050149
0.50011887 0.49895870 0.74768467
0.25276697 0.00212030 0.00128010
0.24986088 0.00118958 0.50107186
0.25048582 0.49523036 0.99620203
0.24576222 0.50147814 0.50304028
0.75403208 0.99721188 0.99906436
0.74678867 0.00188072 0.49743468
0.74936703 0.49915375 0.99666065
0.74850804 0.50196525 0.49583772
0.99930634 0.24898141 0.99937034
0.99713593 0.24708789 0.50055717
0.00249064 0.74666955 0.99915627
0.99723799 0.75300560 0.49965854
0.50497573 0.24870427 0.00092875
0.49699180 0.24973724 0.50038574
0.50084101 0.75131185 0.00226931
0.49634850 0.75075657 0.49738218
0.24654141 0.25018992 0.25166791
0.24744480 0.24941891 0.75249481
0.25354449 0.75069195 0.25001921
0.25135927 0.75128545 0.75131049
0.75441258 0.25134963 0.24935007
0.74950865 0.25143200 0.74758587
0.75008267 0.75068774 0.24887664
0.74796713 0.75009455 0.74519351
Direct configuration=      2
0.14919345 0.01693120 0.35539411
0.13946297 0.11126050 0.76165862
0.14098579 0.74400988 0.40092533
0.14867052 0.73204075 0.89943544
0.64238802 0.02004414 0.34961074
0.63496668 0.00805040 0.85860416
0.59805152 0.60250125 0.48050101
0.61146442 0.63302950 0.75793628
0.25809712 0.39393527 0.36050568
0.40287330 0.34812778 0.76584265
0.26023357 0.88769100 0.36384095
0.35046831 0.98395317 0.85507002
0.84810035 0.35803523 0.48642182
0.75979665 0.35144669 0.89179952
0.84537964 0.98737135 0.34673882
0.88640013 0.84818278 0.75962924
0.39953613 0.01899187 0.10243803
0.35766170 0.11362129 0.74061483
0.35591781 0.73797462 0.11193264
0.35281662 0.51032955 0.64606294
0.85143758 0.13927911 0.00813737
0.86365202 0.00784850 0.63461317
0.76514501 0.60468739 0.14475259
0.75983903 0.60549427 0.63132652
0.14902251 0.48575793 0.15056637
0.13510357 0.48772275 0.64234096
0.13325312 0.88604040 0.23950750
0.14358810 0.98185622 0.65318792
0.63664893 0.49013399 0.14150943
0.63845777 0.48873206 0.64358107
0.61122985 0.88647490 0.01389522
0.64169908 0.86104531 0.50689519
0.36625013 0.14559723 0.01423726
0.25942647 0.13850482 0.60694254
0.48189698 0.65177125 0.15760771
0.35154588 0.64895951 0.51484888
0.85417722 0.23840680 0.10901391
0.85264699 0.14507890 0.51568875
0.85738850 0.64077945 0.01025226
0.89141043 0.61109034 0.50854579
0.38942381 0.49016119 0.39735635
0.48968964 0.38208120 0.89125887
0.34828414 0.84866373 0.48442098
0.39162648 0.89259606 0.99341966
0.98806825 0.39489072 0.40109574
0.89160040 0.26275891 0.85234144
0.98683630 0.89357092 0.38766723
0.75990519 0.85383955 0.89256694
0.11239672 0.38659758 0.00990879
0.23718690 0.37866969 0.63508050
0.11182069 0.99129905 0.11696834
0.10230335 0.90296443 0.51906209
0.62574370 0.38645646 0.01210760
0.61065781 0.39874777 0.50783224
0.73738355 0.89665073 0.13993562
0.63630031 0.75904892 0.60424028
0.10886203 0.10788480 0.49144163
0.14896450 0.00870494 0.85728423
0.09534723 0.60126706 0.48553253
0.13580524 0.60755391 0.76298392
0.59755258 0.10351395 0.48323899
0.64753392 0.14303429 0.98363092
0.60375562 0.73886932 0.35145871
0.73438827 0.60095033 0.85077304
0.01035132 0.39740830 0.10814854
0.13636406 0.36764958 0.51246158
0.01603479 0.84855139 0.14641809
0.01240659 0.85512555 0.63974534
0.51361504 0.39381303 0.10458255
0.50890433 0.39484480 0.60724615
0.63214094 0.76552186 0.11944436
0.50493881 0.89056025 0.59994738
0.35885463 0.39689768 0.26218324
0.36659237 0.25876350 0.88657979
0.38009883 0.99239515 0.38947534
0.48873753 0.89104377 0.89111995
0.88646320 0.49237509 0.38904262
0.86677672 0.36134009 0.98816875
0.89309465 0.85408201 0.26658108
0.85219734 0.97878119 0.84809495
0.00773257 0.09892610 0.39169059
0.01007760 0.10178652 0.89177872
0.23735057 0.64165301 0.39034189
0.01444581 0.64944966 0.85121401
0.51042514 0.14695892 0.35853329
0.51295673 0.09696441 0.89897824
0.50589715 0.63165772 0.35606179
0.60376321 0.51234106 0.89146451
0.48994279 0.14303605 0.14469979
0.35735007 0.01012704 0.63965839
0.43170470 0.60035832 0.02550172
0.48092265 0.59651454 0.59864994
0.98503515 0.11283447 0.10211268
0.98429968 0.09981406 0.60703382
0.89571105 0.51876640 0.10650641
0.89592943 0.51347802 0.60594825
0.09758881 0.26263105 0.14026663
0.13713075 0.25995822 0.61079608
0.10364662 0.89436174 0.01326300
0.14425412 0.75974852 0.60133598
0.64969671 0.26586273 0.10134657
0.64421143 0.26450098 0.59596470
0.63756299 0.89702385 0.24051506
0.59514607 0.84829455 0.73037373
0.39115912 0.24163843 0.15029402
0.39758440 0.10227039 0.51619966
0.35774461 0.50969520 0.13367948
0.39790750 0.73470243 0.64288706
0.90061346 0.14746119 0.23252414
0.89521919 0.23538816 0.64988884
0.98932676 0.64685766 0.13833013
0.98168548 0.65435167 0.64740869
0.48545530 0.38566793 0.38485083
0.35783996 0.35476573 0.98935614
0.48672786 0.89567206 0.40010203
0.35955730 0.75914645 0.89777670
0.90511708 0.35742538 0.26467926
0.98504328 0.36408244 0.85657327
0.85887901 0.76648218 0.39502851
0.89769175 0.89618748 0.98298590
0.09734413 0.23821916 0.36211776
0.11420810 0.10808717 0.98832951
0.14284941 0.52078815 0.35119111
0.10419219 0.50874562 0.89003336
0.64403666 0.24309719 0.39661718
0.60343756 0.23578188 0.85714446
0.63744009 0.61377130 0.25751652
0.64657012 0.64483039 0.98583933
0.38988642 0.26447165 0.35194789
0.26524323 0.39549448 0.84652771
0.36291980 0.89698437 0.26322891
0.39667879 0.84991114 0.76965313
0.76633090 0.39807335 0.34513663
0.89724180 0.48644665 0.89877878
0.75898184 0.86496021 0.39100138
0.98815275 0.85567313 0.85970204
0.34779373 0.10071014 0.23728260
0.48348780 0.14779168 0.64762047
0.28206349 0.62768198 0.05116756
0.38738788 0.63283349 0.74047876
0.88477481 0.00998115 0.11451294
0.86767607 0.11308307 0.74109113
0.88716250 0.64804497 0.23790479
0.85808289 0.60645331 0.73456876
0.11079378 0.13636682 0.26357955
0.10137107 0.23269793 0.85622638
0.11520361 0.65203334 0.26111614
0.10017718 0.60580500 0.99081831
0.61583641 0.14925209 0.26099142
0.60675548 0.13494240 0.75821677
0.63960388 0.51184134 0.35484379
0.50911039 0.64014212 0.86272117
0.10787698 0.36445597 0.23987535
0.00825241 0.37499971 0.62281628
0.15398317 0.76738975 0.10425049
0.11310242 0.84819855 0.74130975
0.59966852 0.34928605 0.23469434
0.59964130 0.34898616 0.73050763
0.51191879 0.85543210 0.15401312
0.60871334 0.98792849 0.60586548
0.34926658 0.35232590 0.48620951
0.39068227 0.48462307 0.89637857
0.39744755 0.76772737 0.34899384
0.26264631 0.86259212 0.89812025
0.86633328 0.26265700 0.38206873
0.84621096 0.40186953 0.76476001
0.88846665 0.90101724 0.49058383
0.86078415 0.75529062 0.89190577
0.23172740 0.34705225 0.10777817
0.10599942 0.35297344 0.73799452
0.23933218 0.89787079 0.14266783
0.24079211 0.86639081 0.62255597
0.74045927 0.39406086 0.14523288
0.73696100 0.38746829 0.63333257
0.60124230 0.99192113 0.10791564
0.72889362 0.89516931 0.64875991
0.26298698 0.14934150 0.11114539
0.35918618 0.23821935 0.61193771
0.33926686 0.61069314 0.23328726
0.25837021 0.62350558 0.63384827
0.76271117 0.09953215 0.15049691
0.75819039 0.11336094 0.63961867
0.85158220 0.74350513 0.10652029
0.84589409 0.73658150 0.59613177
0.23179604 0.15484301 0.40117378
0.23366714 0.14628850 0.89918228
0.01074878 0.64644252 0.35938003
0.23792429 0.60075450 0.86433049
0.73879505 0.13930215 0.39017477
0.73653312 0.11236852 0.85549145
0.72924435 0.65102720 0.39743022
0.62550890 0.73868982 0.87050445
0.00508330 0.00396737 0.00744823
0.99988082 0.00068990 0.49917361
0.00422788 0.49444234 0.99889479
0.98787972 0.50450088 0.49606477
0.50176309 0.99066386 0.99904504
0.49727488 0.99958614 0.50117455
0.50273250 0.48736001 0.99139463
0.50155920 0.49465932 0.49575635
0.00679443 0.25124345 0.25146929
0.99820270 0.25960976 0.75600210
0.99557263 0.74452643 0.24705308
0.99927744 0.75699936 0.75138401
0.49888345 0.24447087 0.25043510
0.50498076 0.24625986 0.75238362
0.50144566 0.74922129 0.25316111
0.49654477 0.74187032 0.75422797
0.24882163 0.98987197 0.25619645
0.24838478 0.00644757 0.75157762
0.25143804 0.49584594 0.25130413
0.24308785 0.50571391 0.74401779
0.74316648 0.99688050 0.24783727
0.75479092 0.00909357 0.74617384
0.73656543 0.50382980 0.24316247
0.74912323 0.50723314 0.73764212
0.26340897 0.24492793 0.00159382
0.24659956 0.25147869 0.51396815
0.25345093 0.75300089 0.99977521
0.24718519 0.74843323 0.50209240
0.75498787 0.25121022 0.00197018
0.75312062 0.24715157 0.49020102
0.75495091 0.74535946 0.99347392
0.74541917 0.75738355 0.49302405
0.12085561 0.12620978 0.37805896
0.12336870 0.12061438 0.87514763
0.12353977 0.63204652 0.37580968
0.12421855 0.62107684 0.87729452
0.62441495 0.13138040 0.37412638
0.62351348 0.12189298 0.87194050
0.61996762 0.62507569 0.36992417
0.62293382 0.62493875 0.87274640
0.37144608 0.37698957 0.37530766
0.37559056 0.37240261 0.87613168
0.37457699 0.87854233 0.37626537
0.37531649 0.87311202 0.88089086
0.87632761 0.37734312 0.37520241
0.87183654 0.37520559 0.87469817
0.87324044 0.87900747 0.37758216
0.87367241 0.86835124 0.87322575
0.37617842 0.12894282 0.12799608
0.37201460 0.12440249 0.62710201
0.37429741 0.62346524 0.12240128
0.37251158 0.62312552 0.62652373
0.87259910 0.12447040 0.12180088
0.87295179 0.12269183 0.62757906
0.87535080 0.63081013 0.12370659
0.87274763 0.62619687 0.62146670
0.12150151 0.37487089 0.12511822
0.12315165 0.37365624 0.62618909
0.12626734 0.87785632 0.12558496
0.12638291 0.87079491 0.62825700
0.62668083 0.37664337 0.12516104
0.62333519 0.37665206 0.62044056
0.62292166 0.87938339 0.12757291
0.61865401 0.87334312 0.61954754
0.05586612 0.44648693 0.31065116
0.05761123 0.44343802 0.80383237
0.05813522 0.94712238 0.30918658
0.06085598 0.93751806 0.80835572
0.55450292 0.44145444 0.30419391
0.55771760 0.43792413 0.80541817
0.55481713 0.94568412 0.31182947
0.55620899 0.93728493 0.80369463
0.43862584 0.06190861 0.30914116
0.43964944 0.05370045 0.80904860
0.43285731 0.55505635 0.30271638
0.44088501 0.55384567 0.81125699
0.93593280 0.05704873 0.30496762
0.94130368 0.05048719 0.81069865
0.94046634 0.56361972 0.30695260
0.94065635 0.55941583 0.80978346
0.44001472 0.43972533 0.18709864
0.43756460 0.43845090 0.69363055
0.44279232 0.94766280 0.19086676
0.43681934 0.93646637 0.69273457
0.94200780 0.44729954 0.19229929
0.93720739 0.44328724 0.69324005
0.94343656 0.93733567 0.19212059
0.94193058 0.93673523 0.69353435
0.05252592 0.06160318 0.19120644
0.05685483 0.05470504 0.69353014
0.06071491 0.56223400 0.19372981
0.05191791 0.56157783 0.68945656
0.55964995 0.06180977 0.19650534
0.55165771 0.05486769 0.68870773
0.55205718 0.55942668 0.18949860
0.55109878 0.55587835 0.68978921
0.30262335 0.06312172 0.44703949
0.30948892 0.06047480 0.94340694
0.30555402 0.56098792 0.44518555
0.30950539 0.55594623 0.94989007
0.80872135 0.05713538 0.44262878
0.80713914 0.05413455 0.93598353
0.80341915 0.56331014 0.43864004
0.80915355 0.55916270 0.93876351
0.30225741 0.43418462 0.05899010
0.30364031 0.44240594 0.55762730
0.31124270 0.94692416 0.06182236
0.30805581 0.94054941 0.55626710
0.81065650 0.44433116 0.05704372
0.80656542 0.44648410 0.55525403
0.80874407 0.94002942 0.05380253
0.79884563 0.94104340 0.55879843
0.18711268 0.44773163 0.44058654
0.19259963 0.43857554 0.93603634
0.18892288 0.94296421 0.44343785
0.19278120 0.94452620 0.94749116
0.69478967 0.44108881 0.43502121
0.69520796 0.44411980 0.93739402
0.68686065 0.94792078 0.43844834
0.69042397 0.93948709 0.94010762
0.19471398 0.06159088 0.06235174
0.18792086 0.05349416 0.56396622
0.18903005 0.55233243 0.05730108
0.18668192 0.56009782 0.55921305
0.69322104 0.05705351 0.05600664
0.68805041 0.06261339 0.55540236
0.69301920 0.55842519 0.05606998
0.68476840 0.55669843 0.55202568
0.44536417 0.30573591 0.05942682
0.43893524 0.30972547 0.55799187
0.44386213 0.80742798 0.06286375
0.43690403 0.80451357 0.55439632
0.94308863 0.30603940 0.05956204
0.93476091 0.30496047 0.55876316
0.94342869 0.81016380 0.05653489
0.93682773 0.81020526 0.55914800
0.05542764 0.30755887 0.44770079
0.05522063 0.30784224 0.93880122
0.05624897 0.81450659 0.44675495
0.06100134 0.80775027 0.94098818
0.55578700 0.30924389 0.44274029
0.56480383 0.30646500 0.94540675
0.55542971 0.80583622 0.44058042
0.55873186 0.80560659 0.94439771
0.43722458 0.19385734 0.44227287
0.44895372 0.19061026 0.94200506
0.43707103 0.69102608 0.43732063
0.44152331 0.68988108 0.94766860
0.94053522 0.18913035 0.44265439
0.93963073 0.19094114 0.94023002
0.94072672 0.69651151 0.44143323
0.94675970 0.68935701 0.94366941
0.05888385 0.19155217 0.05378478
0.05272419 0.18951995 0.56214681
0.06303093 0.69680409 0.05973409
0.05420257 0.69340124 0.55815648
0.56355245 0.19009474 0.05973212
0.55459731 0.19174341 0.55721588
0.55735701 0.68859856 0.06143866
0.55221637 0.68691905 0.55487204
0.30441292 0.31021273 0.19643707
0.30965381 0.30813452 0.69787648
0.30919690 0.81299100 0.19456847
0.31168528 0.80348287 0.69734035
0.81377526 0.31175848 0.19473868
0.80699857 0.31011055 0.69157884
0.80720344 0.81238546 0.19392179
0.80320490 0.80650796 0.68555149
0.30342074 0.19105486 0.30955385
0.30477127 0.19056018 0.81202110
0.30839840 0.69629221 0.31018440
0.30777023 0.68700972 0.81322667
0.81018521 0.19072880 0.30494179
0.80552404 0.19400300 0.80544199
0.80510193 0.69589347 0.31127199
0.80408758 0.69070258 0.80393990
0.18789392 0.19526982 0.19249371
0.19180724 0.19264996 0.69299472
0.19918828 0.69342777 0.18855188
0.18861830 0.69465895 0.69734249
0.69686401 0.19567296 0.18716215
0.68774623 0.19549348 0.68851274
0.69451860 0.69424266 0.19034781
0.68886847 0.68996619 0.68678387
0.18732480 0.30758720 0.31282191
0.19009354 0.30654543 0.81145817
0.18936676 0.80822099 0.30897646
0.19592756 0.80640205 0.81540644
0.69323366 0.30922021 0.30574238
0.68801735 0.30923911 0.80539953
0.68896105 0.81092700 0.30781553
0.68906516 0.80966211 0.80111946
0.99730631 0.00033056 0.24909765
0.00068726 0.99461407 0.75138269
0.00024201 0.50561349 0.25065934
0.99678537 0.50204819 0.74905678
0.49874085 0.00426421 0.25260474
0.49562538 0.99620488 0.74839118
0.49522337 0.49933152 0.24689600
0.49716500 0.49621295 0.75056523
0.25233120 0.00374948 0.00343068
0.24706104 0.99992250 0.50232485
0.24694883 0.49400527 0.99974027
0.24574158 0.50279813 0.50143661
0.74950367 0.99842362 0.99683196
0.74593440 0.00259940 0.49895415
0.75202144 0.50113374 0.99801557
0.74755119 0.50206958 0.49541403
0.99841092 0.24927829 0.99737643
0.99577699 0.24769966 0.50279190
0.00260125 0.75118568 0.00039783
0.99737592 0.75422236 0.50157791
0.50508429 0.24838550 0.00239609
0.49668806 0.25095251 0.50008466
0.50065283 0.74885485 0.00413952
0.49622213 0.74675014 0.49651071
0.24563914 0.25119885 0.25322679
0.24876458 0.24976743 0.75304189
0.25015639 0.75280984 0.25019113
0.25156679 0.74751243 0.75561693
0.75326152 0.25193346 0.24878695
0.74667334 0.25203632 0.74736460
0.74895479 0.75356472 0.25116098
0.74658588 0.74845441 0.74504815
Direct configuration=      3
0.20488527 0.04376747 0.37107753
0.14384163 0.10284925 0.76350846
0.10076227 0.74061563 0.36054315
0.14954766 0.73393429 0.89974329
0.60352088 0.01231628 0.38551105
0.64258001 0.01276736 0.85526176
0.60093840 0.60012647 0.48200308
0.60550733 0.63190443 0.76374656
0.25749867 0.37200104 0.38453610
0.39947014 0.34875668 0.76621713
0.25989448 0.86971738 0.38074085
0.35283450 0.99039508 0.86291985
0.84668384 0.34992121 0.48674446
0.76186581 0.40276168 0.85084472
0.85373830 0.98674779 0.34950898
0.89391194 0.84851045 0.76166266
0.39709273 0.01771557 0.10413485
0.35466882 0.11228952 0.73940125
0.36253625 0.73953437 0.11458364
0.34547260 0.51464913 0.65267410
0.85464462 0.13223292 0.01034305
0.86838510 0.00930364 0.62216762
0.76728360 0.59951817 0.15000156
0.75900218 0.60616799 0.63298478
0.15194577 0.48227580 0.15143387
0.14006731 0.49174913 0.64381940
0.14888873 0.90336181 0.23695802
0.14433653 0.97645916 0.65859323
0.63720228 0.48956433 0.14270576
0.63968178 0.48995770 0.64809289
0.60427062 0.88562693 0.01313970
0.65009027 0.85648662 0.51605906
0.36452851 0.14798916 0.01746755
0.25824130 0.14015878 0.60511505
0.48139772 0.64453625 0.14860349
0.36231054 0.64194731 0.51378250
0.85354994 0.23597322 0.11002959
0.85751337 0.14335302 0.50858707
0.85582504 0.63950815 0.01140409
0.88675469 0.61644979 0.50876108
0.38849115 0.49104813 0.39921480
0.48846540 0.38415186 0.89462774
0.35917771 0.85251071 0.48824285
0.39058411 0.89105204 0.99229641
0.98822265 0.39082821 0.39495254
0.85093451 0.26266216 0.88893372
0.99038655 0.88613270 0.38465310
0.75725356 0.86927850 0.87361105
0.11213039 0.38739098 0.01141709
0.23312847 0.35756060 0.60842292
0.10531589 0.98611333 0.10227465
0.10026877 0.91274967 0.51973329
0.65340712 0.35183340 0.01832007
0.61165226 0.39788994 0.51031807
0.73490304 0.85647222 0.10327838
0.61127145 0.75924947 0.63189111
0.11356799 0.11493237 0.49334871
0.11556500 0.00664388 0.88388889
0.10467034 0.60366793 0.48934643
0.13734285 0.61008326 0.76342770
0.60295190 0.10822185 0.49042323
0.64845205 0.14780051 0.98560006
0.62421948 0.74122157 0.37547639
0.73292122 0.59874208 0.85340087
0.01116790 0.39185346 0.10799036
0.10466552 0.39553271 0.51736874
0.01313339 0.85905232 0.14050636
0.01112897 0.85615968 0.64052743
0.51400654 0.39922174 0.10077819
0.50956056 0.39871887 0.61170542