Li192 P32 S161 Cl31
1.0
20.282700 0.000000 0.000000
0.000000 20.282700 0.000000
0.000000 0.000000 20.282700
Li Cl S P
192 31 161 32
Direct configuration=      1
0.07920608 0.90834469 0.02624525
0.08578342 0.99208925 0.58439859
0.03512954 0.58182224 0.08388338
0.99257930 0.58744695 0.60306200
0.58825126 0.09375259 0.00392911
0.58772874 0.01594769 0.42072455
0.61596315 0.47125136 0.01293774
0.59666194 0.39397711 0.50384664
0.34357525 0.51096177 0.17173471
0.35069532 0.46763422 0.81015163
0.21433201 0.88196762 0.23077895
0.27210776 0.05690016 0.65057462
0.75745801 0.60579641 0.17302321
0.83866026 0.41848613 0.76316828
0.78487833 0.10113492 0.20342077
0.85364588 0.02022049 0.72156235
0.01430559 0.27558359 0.14302133
0.90872937 0.25061190 0.66832323
0.07987235 0.75594714 0.16867050
0.94736267 0.85251286 0.78604663
0.46042609 0.13068126 0.22696557
0.54000524 0.13926314 0.76958604
0.53292684 0.78427851 0.14512074
0.40890678 0.74883866 0.66409815
0.16582370 0.49805154 0.33229369
0.16299146 0.50283826 0.66748134
0.15272429 0.99519741 0.17769341
0.23690572 0.91947455 0.84265001
0.66681914 0.48921928 0.16663197
0.66385671 0.58489049 0.77082075
0.65070751 0.91995896 0.24857790
0.73919639 0.90742479 0.66176156
0.92619823 0.16538857 0.24365106
0.99083026 0.35937887 0.78215318
0.91561601 0.76693045 0.33849025
0.08424800 0.67505939 0.76337419
0.41170405 0.24656345 0.33524316
0.57989056 0.27364463 0.82875603
0.41591632 0.74399480 0.34698897
0.58352291 0.73727553 0.82906871
0.00858448 0.41954942 0.59882817
0.02057425 0.41999056 0.08432121
0.06232034 0.92903228 0.43993491
0.94498414 0.96633107 0.89950110
0.44350098 0.42705181 0.56772120
0.50497872 0.41517051 0.08465530
0.47770714 0.90180567 0.43164710
0.58531138 0.98954537 0.90821042
0.09132406 0.17043136 0.25465871
0.97449409 0.13628648 0.71982822
0.98059941 0.63747746 0.23939286
0.93915219 0.70079502 0.82246258
0.41774064 0.25954875 0.16151732
0.58317397 0.27276184 0.66007112
0.57175856 0.65737827 0.26804023
0.47291389 0.63489345 0.72158243
0.33197823 0.16224713 0.49647929
0.22214534 0.15960589 0.92166281
0.24349963 0.65901008 0.41017783
0.22937940 0.63074192 0.96192327
0.79845477 0.14827949 0.54476383
0.76677709 0.14824036 0.03814839
0.64529415 0.70246574 0.46538452
0.83584780 0.68052870 0.02460820
0.08513517 0.34032596 0.25105705
0.09661951 0.24779840 0.70398871
0.02741911 0.86539092 0.23684859
0.03587386 0.78728155 0.63281147
0.58305711 0.25203306 0.17042223
0.46871135 0.35574557 0.76759464
0.40997056 0.83004967 0.23534594
0.52779605 0.85521994 0.71549333
0.43625281 0.06182007 0.43279875
0.48628094 0.08583106 0.90815753
0.48023215 0.41622369 0.41331817
0.48553680 0.41690934 0.91771713
0.02123031 0.08638329 0.41352211
0.08414841 0.01438201 0.91516289
0.02222067 0.60448269 0.45222813
0.11152304 0.52081869 0.95834582
0.46975495 0.89680902 0.96814996
0.40768961 0.01187276 0.57647797
0.39270968 0.52225213 0.02282654
0.47067873 0.59572611 0.52732275
0.91739983 0.08898985 0.00856963
0.90958618 0.98881716 0.42015447
0.98732609 0.41778779 0.92478278
0.98791809 0.41983774 0.42772280
0.39622884 0.03836566 0.03226406
0.56277414 0.06970223 0.56627867
0.51659471 0.58316562 0.91423009
0.58665682 0.52296901 0.41367136
0.06043829 0.07414993 0.06562629
0.97518445 0.11134758 0.55423388
0.00400683 0.59517999 0.92389591
0.11574427 0.48521382 0.52133274
0.33815830 0.99125200 0.17409328
0.22838717 0.91733642 0.66651444
0.22480156 0.41106258 0.16406769
0.34259699 0.51651112 0.65926057
0.72164575 0.96048667 0.13675972
0.70850351 0.08401676 0.68629457
0.85642022 0.50463511 0.19237961
0.73059332 0.45392009 0.64437222
0.32184390 0.97742640 0.34091391
0.31865870 0.06714344 0.81516290
0.32441376 0.54617468 0.32306684
0.18795683 0.43777654 0.81706651
0.75928210 0.97657901 0.36191017
0.63431732 0.95268229 0.72283259
0.83247326 0.48162047 0.33929006
0.81823241 0.55248891 0.83437210
0.27240036 0.14805237 0.06307992
0.33139513 0.32790202 0.48229260
0.36252420 0.70776652 0.02788894
0.29655065 0.64424533 0.54397207
0.84737616 0.25026660 0.09159701
0.86759371 0.28550333 0.47487105
0.83337492 0.83101738 0.98199665
0.82056880 0.67082224 0.50787979
0.17745804 0.30811623 0.93136850
0.15719883 0.16765087 0.50178889
0.13359510 0.73165742 0.96630702
0.13514205 0.72402803 0.47338651
0.64273151 0.28550568 0.02002178
0.64476819 0.20737123 0.48184806
0.66460032 0.66138714 0.99880857
0.65759032 0.84749908 0.51880199
0.47757962 0.35754608 0.27171826
0.41838076 0.24026280 0.82373366
0.41563118 0.65945926 0.22093876
0.42503032 0.76080815 0.83592024
0.91137276 0.32869478 0.26889183
0.90392525 0.25275421 0.83681072
0.90408912 0.75032272 0.17090291
0.08939182 0.83828493 0.75200000
0.93337188 0.93946978 0.07446931
0.93398897 0.94434818 0.57105820
0.89814711 0.53763062 0.03311514
0.88635312 0.52005809 0.52547354
0.54088716 0.97073825 0.10586009
0.53054913 0.91000913 0.58068025
0.50714414 0.58811460 0.08393186
0.58770784 0.49495796 0.59593312
0.27186331 0.10434394 0.22110391
0.16133323 0.06819692 0.76619551
0.18794966 0.56403940 0.18529434
0.24909889 0.60416774 0.75448392
0.65787544 0.08570234 0.26675776
0.72442273 0.04993276 0.84935926
0.73334354 0.59891028 0.33169366
0.78975217 0.59932334 0.69027767
0.02796214 0.23858812 0.36992013
0.04092575 0.20294975 0.85602458
0.08041860 0.73243888 0.33065996
0.90731744 0.73410240 0.66513424
0.58188335 0.23187401 0.33137596
0.42410140 0.22498084 0.65668843
0.56213291 0.80633744 0.31882185
0.58505248 0.74795494 0.66128341
0.31015976 0.31874933 0.06181445
0.17253652 0.33730093 0.51214599
0.28189073 0.85668342 0.98711359
0.35886787 0.78229984 0.48991111
0.82044730 0.36172166 0.97276662
0.75168744 0.33396448 0.41221721
0.66869799 0.83354143 0.96728458
0.82651951 0.84371688 0.50387854
0.29249683 0.38876044 0.29297887
0.25203146 0.39465198 0.66460921
0.17296565 0.01771171 0.33987068
0.34744715 0.91409359 0.75470420
0.68460833 0.43085572 0.30259934
0.68278796 0.43458220 0.81269540
0.83070859 0.92199253 0.24973780
0.76930430 0.90378994 0.82427297
0.15961379 0.26074021 0.08169166
0.26856685 0.21588786 0.60996356
0.22718849 0.75290731 0.10625082
0.21307617 0.78042977 0.60070071
0.74300510 0.35195872 0.09736488
0.73337254 0.29734980 0.59381389
0.71115482 0.78483452 0.10904264
0.71693239 0.77281410 0.61362135
0.22247127 0.22234483 0.38519203
0.33539044 0.26732214 0.92798625
0.25027731 0.83299407 0.41711821
0.27885844 0.76613107 0.88637883
0.75222848 0.16272172 0.40013492
0.75098701 0.24294376 0.89978316
0.76409054 0.79110960 0.39238076
0.74035587 0.71032717 0.89112136
0.12184310 0.14157797 0.37616241
0.12498447 0.11530108 0.87004849
0.12379172 0.63553027 0.38993796
0.12085281 0.62956356 0.89614853
0.63394873 0.12983063 0.37980976
0.60500509 0.10683879 0.87901525
0.62637176 0.62703956 0.37286654
0.63054511 0.63609293 0.87917898
0.38491915 0.36044247 0.36604532
0.39062894 0.36050208 0.86139809
0.37130601 0.85632873 0.38340968
0.35138653 0.86313547 0.87435230
0.87364398 0.37171695 0.37884715
0.88712229 0.37018868 0.86736871
0.85212412 0.88249457 0.38231943
0.87221741 0.87605571 0.87527579
0.36457017 0.10960795 0.13725754
0.36083983 0.12772886 0.60857826
0.38922302 0.61087164 0.11233151
0.86331111 0.13574204 0.11581597
0.88714394 0.13322503 0.63193478
0.87148546 0.62278535 0.12981214
0.87553746 0.62535534 0.61026019
0.38779254 0.62480344 0.62608592
0.11711734 0.36089934 0.13526701
0.13341754 0.39820579 0.61384297
0.11878008 0.87406660 0.14879523
0.12531368 0.86740271 0.63543045
0.62576767 0.38141246 0.10999916
0.63586424 0.37592668 0.61355241
0.62544293 0.88028630 0.13419942
0.62691846 0.86151317 0.63713186
0.05819723 0.43874276 0.31971788
0.06049999 0.45187432 0.82581949
0.06617784 0.95404018 0.31328052
0.04700211 0.93518972 0.81742072
0.55355967 0.44522923 0.31282349
0.55568843 0.43156343 0.81141231
0.55022565 0.93535017 0.32403186
0.54423833 0.93604701 0.80547063
0.42517965 0.04421844 0.30922559
0.44152484 0.06894091 0.79496206
0.44308195 0.56783406 0.29858592
0.44500455 0.55447803 0.81229167
0.94288898 0.06547787 0.31896512
0.93896995 0.05566944 0.80412333
0.93251096 0.54601784 0.30025437
0.94419186 0.56917086 0.81981182
0.44507692 0.44087959 0.19004904
0.44051508 0.44390697 0.69364201
0.44804236 0.93283445 0.18831313
0.44173499 0.94460482 0.68076106
0.95299428 0.42643080 0.19108238
0.94838274 0.44754714 0.70594724
0.94392225 0.94494629 0.20373528
0.93939712 0.93510651 0.69344510
0.05444269 0.06934398 0.19596136
0.06043613 0.05048172 0.69292885
0.06089818 0.55573260 0.20115097
0.06364389 0.56668090 0.70398348
0.55345849 0.05219453 0.20552995
0.56677500 0.05242972 0.69042070
0.56557092 0.55780648 0.19076226
0.56466313 0.55628256 0.69946592
0.30477354 0.05682042 0.43780064
0.29882209 0.06893016 0.95547535
0.31844716 0.56119262 0.44830880
0.30947150 0.54159772 0.93832694
0.80846976 0.05801781 0.44530236
0.80740949 0.06773123 0.94471669
0.80391352 0.55584507 0.43859370
0.81199608 0.57477809 0.95596709
0.30582939 0.44018332 0.06856002
0.31608546 0.43420026 0.55845913
0.31351899 0.94631190 0.05979670
0.30142949 0.94824960 0.56605117
0.81818351 0.45111574 0.06609883
0.80511452 0.43035977 0.54559138
0.80526672 0.93470328 0.05076702
0.80618260 0.94679502 0.56747665
0.19945244 0.44268991 0.44298579
0.18871616 0.43005082 0.94542521
0.19172244 0.94136273 0.43865289
0.18711107 0.93957656 0.95534674
0.68522657 0.44008236 0.43081148
0.71090166 0.44091892 0.94531142
0.68534781 0.94906354 0.45327980
0.69841178 0.94731429 0.92516112
0.18741993 0.05683445 0.07403445
0.18606160 0.06094773 0.55637051
0.18976641 0.55563324 0.05060634
0.20548612 0.55891251 0.56328727
0.69105123 0.05061538 0.05871121
0.69730082 0.07534327 0.56268334
0.68948927 0.55649524 0.06433374
0.69370020 0.54749790 0.56128117
0.43676236 0.31493387 0.05419158
0.43108067 0.30276468 0.55372605
0.44265662 0.80633701 0.05099839
0.44933498 0.81316871 0.56471839
0.94459383 0.31842991 0.05038158
0.94389286 0.31600486 0.56776456
0.92754460 0.80797760 0.06479005
0.93589200 0.81070654 0.55974893
0.06392804 0.31680668 0.45512026
0.05482838 0.30678722 0.92941600
0.04788915 0.80468859 0.43307671
0.04859939 0.81601313 0.94974358
0.55267573 0.30147486 0.43624438
0.55510368 0.31568598 0.94095105
0.56080451 0.80640605 0.44559471
0.55335607 0.81057220 0.92981021
0.43784871 0.18499757 0.43766482
0.43689879 0.19509615 0.94077545
0.43539512 0.69304747 0.45432151
0.44611533 0.68638561 0.93793329
0.95424586 0.19467465 0.45828848
0.94263092 0.19033803 0.94001550
0.92807984 0.69263039 0.43934298
0.93587839 0.69287553 0.95063296
0.05635564 0.19918166 0.05989987
0.06590944 0.20114377 0.57822487
0.05817615 0.70029967 0.06352782
0.04847001 0.69283510 0.55251325
0.55825974 0.20120418 0.05684762
0.55303005 0.19473530 0.56131312
0.56377376 0.69816284 0.05696368
0.56025775 0.68459045 0.55688686
0.30868631 0.31556692 0.18824449
0.31283321 0.29086534 0.69588633
0.29859484 0.80057569 0.19257098
0.30106005 0.81584908 0.68464103
0.80722874 0.31146942 0.19370808
0.80639014 0.31922984 0.69435042
0.79924931 0.81602751 0.18988566
0.80719429 0.80460816 0.69159813
0.30631473 0.19064239 0.30015707
0.30388041 0.19220336 0.82924149
0.31080846 0.68022323 0.30588864
0.31495387 0.69623459 0.79844732
0.81170012 0.18445205 0.29669224
0.80112174 0.19019084 0.80272653
0.80236998 0.70569736 0.31328551
0.81671507 0.68017030 0.79864555
0.19386401 0.19244844 0.18257881
0.19835702 0.17326542 0.70085105
0.18253528 0.68628163 0.19570945
0.19029790 0.69404519 0.69250606
0.68954682 0.18888673 0.18964042
0.68834056 0.20816114 0.68252782
0.68285624 0.70009899 0.19638808
0.69310475 0.68322933 0.69421779
0.19488119 0.30982823 0.30365392
0.18036250 0.30220371 0.79849004
0.18950560 0.79646618 0.31607928
0.19148907 0.80672651 0.81297050
0.68930465 0.30090284 0.31018207
0.69370583 0.31048707 0.81739231
0.68470753 0.82066781 0.31026374
0.69763246 0.79753885 0.81547707
0.00074506 0.99970261 0.00062757
0.00003545 0.00682246 0.49992140
0.00488222 0.50583868 0.00379633
0.00133547 0.50502689 0.51440007
0.50512062 0.00690715 0.99523166
0.50054447 0.99612188 0.50150652
0.50484772 0.50076133 0.00149506
0.51663481 0.48525457 0.50248675
0.00476730 0.25226833 0.25679451
0.99104813 0.24548735 0.75571193
0.99415497 0.75198107 0.25003175
0.00068657 0.75684037 0.74088466
0.49396473 0.24360282 0.24821282
0.50364576 0.24713320 0.74523162
0.48926295 0.74690005 0.25196750
0.49804333 0.74627461 0.74417423
0.24695665 0.99330815 0.25032775
0.25582496 0.99309725 0.75284397
0.25301444 0.49153212 0.24912071
0.25710972 0.48942720 0.73834863
0.73964980 0.99929047 0.24793058
0.74317001 0.99188918 0.74765744
0.75206031 0.51144434 0.24983878
0.75295064 0.50350464 0.75124449
0.24542381 0.24633404 0.00116100
0.24693679 0.24514679 0.49770845
0.25196857 0.74220473 0.99507431
0.24911141 0.74288977 0.49548886
0.75835955 0.26630163 0.01317756
0.75709401 0.24426998 0.48909303
0.74372942 0.75153638 0.00038598
0.74267125 0.76129861 0.50147507
0.00090501 0.00920116 0.25796182
0.99859883 0.99440702 0.75052210
0.00196938 0.49021328 0.25290271
0.00417862 0.50974877 0.76356955
0.49415619 0.98983294 0.25874174
0.49714922 0.00125251 0.74420768
0.50078867 0.50433216 0.24699267
0.50389220 0.49675974 0.75375402
0.24491822 0.00287249 0.01079325
0.24648446 0.00133381 0.50020179
0.24874314 0.49024854 0.00026629
0.25962419 0.49910514 0.50212576
0.75205233 0.99994839 0.99498873
0.74791955 0.00599348 0.50882139
0.75694193 0.50618933 0.00607234
0.74553275 0.49349174 0.49446899
0.99964617 0.25266645 0.99476133
0.00925171 0.25779710 0.51710758
0.99307392 0.75575762 0.00694805
0.98795060 0.75157951 0.49503215
0.49620768 0.25486864 0.99724353
0.49296316 0.24570442 0.49734054
0.50320772 0.74897020 0.99357532
0.50196417 0.74899466 0.50599921
0.25007214 0.25173787 0.24235468
0.24927752 0.24113263 0.75738587
0.24634263 0.73931913 0.25448217
0.24928144 0.75456036 0.74782912
0.74944012 0.24756911 0.24726642
0.74754485 0.25665583 0.74911050
0.74207917 0.75971562 0.25250253
0.75296129 0.74342505 0.75073100
Direct configuration=      2
0.11176714 0.96398548 0.02470425
0.08220460 0.99114270 0.58897072
0.01139577 0.58060295 0.07805695
0.99782115 0.58780367 0.59114213
0.57590113 0.10524919 0.99410576
0.61562024 0.02830450 0.47327590
0.61174521 0.46603420 0.01439107
0.61549845 0.54434614 0.47262807
0.34103321 0.51479475 0.17150597
0.33716160 0.47998425 0.83332571
0.31137437 0.93132280 0.18385091
0.27555808 0.02595059 0.63395458
0.78010155 0.62064333 0.21388298
0.84311443 0.41877681 0.76319755
0.84646058 0.05281092 0.21973582
0.83214516 0.01917137 0.66783137
0.97951620 0.22809000 0.14067204
0.91143102 0.25190876 0.66246010
0.06196740 0.78028730 0.15633717
0.94970558 0.85618894 0.76740162
0.47677271 0.13473611 0.21952486
0.50894420 0.14712498 0.75599580
0.57516101 0.76562345 0.15627426
0.39793934 0.72708474 0.70165457
0.16655489 0.49793231 0.33433872
0.16402204 0.50330476 0.66531033
0.16047821 0.99491349 0.17425121
0.27045853 0.97139726 0.86177059
0.67324598 0.50231943 0.16734921
0.66611691 0.58338842 0.76365225
0.65892946 0.91712854 0.25104979
0.70232458 0.96016718 0.63481173
0.91215306 0.17498928 0.25420919
0.01907780 0.35155484 0.73712558
0.91142972 0.75043856 0.33790458
0.07876971 0.66733431 0.76401944
0.40261003 0.24867212 0.32853917
0.58093524 0.24103045 0.84878591
0.41512096 0.76381324 0.33450239
0.59572727 0.74954896 0.82712574
0.00560622 0.41708782 0.58822774
0.00168425 0.41131933 0.09098308
0.06020994 0.92588507 0.43961175
0.98402819 0.91417055 0.92001374
0.39597478 0.50543240 0.51551093
0.49951001 0.41307863 0.08264709
0.48467270 0.91411760 0.41821249
0.58557790 0.00339477 0.90379409
0.08358021 0.17166091 0.26238901
0.91576292 0.14878283 0.74891533
0.97460731 0.63660084 0.22983377
0.95813612 0.74659634 0.85478157
0.41275401 0.24412088 0.15568849
0.61397494 0.29797242 0.71976875
0.57749613 0.65690472 0.26670042
0.52293236 0.64488651 0.76918022
0.33074732 0.15824923 0.49353151
0.16167638 0.14519125 0.98270500
0.25940858 0.66088706 0.41015936
0.22078327 0.63014857 0.96317524
0.78969158 0.14642923 0.54448340
0.72358145 0.16679101 0.08283120
0.65063803 0.71964807 0.44982620
0.83400199 0.66598643 0.02254380
0.08063525 0.33876419 0.23569054
0.06652735 0.18474225 0.68900168
0.97343703 0.86277186 0.27613713
0.04653789 0.77409864 0.63330486
0.57631496 0.26977108 0.16655038
0.47205402 0.36901665 0.76886763
0.43021817 0.81278010 0.17942049
0.52771590 0.86441768 0.71733898
0.49774205 0.08219966 0.40593540
0.43209589 0.06343782 0.93083609
0.51363512 0.41809631 0.42851161
0.48625425 0.41996081 0.91409870
0.01966385 0.09402094 0.41521141
0.01171002 0.08098381 0.91509749
0.99415577 0.58567327 0.42344175
0.11291420 0.44528083 0.01046112
0.46535936 0.89909130 0.97126140
0.38623384 0.01096408 0.51698245
0.39172919 0.52328106 0.02401962
0.49707656 0.60001818 0.58345286
0.88688767 0.02409820 0.00719297
0.91390895 0.98669955 0.41297336
0.99401165 0.41033872 0.90807760
0.99378321 0.41912865 0.42047886
0.43130985 0.02220279 0.08716774
0.48955267 0.08435023 0.58301949
0.51284755 0.58081214 0.91235433
0.49953514 0.59320664 0.41126394
0.99907011 0.08317793 0.09072829
0.96428327 0.10661062 0.55152917
0.02587816 0.57826630 0.91873474
0.11007187 0.48255385 0.52017522
0.32972058 0.08541017 0.23465510
0.21173607 0.89684412 0.71449784
0.19167771 0.47235530 0.15235373
0.35895991 0.54284319 0.69858386
0.72614725 0.96835884 0.13618057
0.66868815 0.08244494 0.75148373
0.84115171 0.50060013 0.16907157
0.71956241 0.45617935 0.64384239
0.33578971 0.97336532 0.33700225
0.32907114 0.08848377 0.76026509
0.34311823 0.49398035 0.33369215
0.18986531 0.43124163 0.81253608
0.73473322 0.03354562 0.35866507
0.65881254 0.90630969 0.74523032
0.84456157 0.48177798 0.33283554
0.82231475 0.56286705 0.82072301
0.26515405 0.15427282 0.09673248
0.32749562 0.32963743 0.47840508
0.36043195 0.70346926 0.02347603
0.25280347 0.66077512 0.58707242
0.85957241 0.22256047 0.02675364
0.85553632 0.29487914 0.47116075
0.83612512 0.83788825 0.99767936
0.81917023 0.67108997 0.50505795
0.18989202 0.29569374 0.93059531
0.15796852 0.16004436 0.49620926
0.15118728 0.74802394 0.92002272
0.14131236 0.72117481 0.46459170
0.63588700 0.28825411 0.01870769
0.65436614 0.23602650 0.57572440
0.67042866 0.66464905 0.98695900
0.65744426 0.85293028 0.51641788
0.46814749 0.36008137 0.27137691
0.41318763 0.26202410 0.83171024
0.41966897 0.65682677 0.22320037
0.45391855 0.78245874 0.85145541
0.90865683 0.33430883 0.25853423
0.91190942 0.26349243 0.84291826
0.90460261 0.74592882 0.16675324
0.08818645 0.83431099 0.75129808
0.99381976 0.91794905 0.09246401
0.93974739 0.93387069 0.56450859
0.89295092 0.48544664 0.98466348
0.88666414 0.51984665 0.53121756
0.57864648 0.97729653 0.08492241
0.52459194 0.91940162 0.58005731
0.50807174 0.58661470 0.08390813
0.54804951 0.45462202 0.59734467
0.22378144 0.08240540 0.33499834
0.16274133 0.06726292 0.77232384
0.22295650 0.61097177 0.26414207
0.22238266 0.60470747 0.78120905
0.66052225 0.08694579 0.24978545
0.80932967 0.04163994 0.82491197
0.72957279 0.58441881 0.34438030
0.77773387 0.58767276 0.66237786
0.98668739 0.27416515 0.36504044
0.07351689 0.22799768 0.83663361
0.09997453 0.72994887 0.30260245
0.90702742 0.72039773 0.68366215
0.57665369 0.23502708 0.32463018
0.47390182 0.26188822 0.64104840
0.56153857 0.81029359 0.31492966
0.55510290 0.76505856 0.63976763
0.30679972 0.31828515 0.05051730
0.16864562 0.33491348 0.51645353
0.29766393 0.85340173 0.99314807
0.36543013 0.72964989 0.52695966
0.77352979 0.33731406 0.92613063
0.67949693 0.32647888 0.45094880
0.66491138 0.83658955 0.98649615
0.82778896 0.82099753 0.55541413
0.28105495 0.38365715 0.27107971
0.26849529 0.40700546 0.66905668
0.18107920 0.92920628 0.31189444
0.35033305 0.91246237 0.75108719
0.68890293 0.42696261 0.30521221
0.68746126 0.43706697 0.81291304
0.82156927 0.91282859 0.26539248
0.79681826 0.89003217 0.77841547
0.15537329 0.26483941 0.09063480
0.25748508 0.21724553 0.61049976
0.22027898 0.75619283 0.09642216
0.22774751 0.82885615 0.57515948
0.74777547 0.33862553 0.09151270
0.75664020 0.32569605 0.59134198
0.72576872 0.78183597 0.11041114
0.70424739 0.77772986 0.61511046
0.21262986 0.23258260 0.38622052
0.31556167 0.18523417 0.94318651
0.27272920 0.83175514 0.42333144
0.29404647 0.77275269 0.88002314
0.72323616 0.19641735 0.39848120
0.73159812 0.17654133 0.91417003
0.76853880 0.83468144 0.40964366
0.78865099 0.76047822 0.88878609
0.12698519 0.13900757 0.37699909
0.11530051 0.12301764 0.87555106
0.15009679 0.63186676 0.36534711
0.13414531 0.63597835 0.87152124
0.63281022 0.11143642 0.37167628
0.62241110 0.12735731 0.87814511
0.62023372 0.62498752 0.37859857
0.60968000 0.63491237 0.85889617
0.37329378 0.36962761 0.35385583
0.39334402 0.37852039 0.85474661
0.37885848 0.87090760 0.37608173
0.36861589 0.86662634 0.87560034
0.89512602 0.36643885 0.37461873
0.87852907 0.37492033 0.87461549
0.87623861 0.87379877 0.36290619
0.87694598 0.85239345 0.87106443
0.37966394 0.12616292 0.13690776
0.36537915 0.10461235 0.59698784
0.39083356 0.61232045 0.11228020
0.89499713 0.13491558 0.13496831
0.87702250 0.13039212 0.63228520
0.87497433 0.62786488 0.13915074
0.87698397 0.62262802 0.60717032
0.37952189 0.63501309 0.61859416
0.11666822 0.37773563 0.12017770
0.12409444 0.40015472 0.61239431
0.10528680 0.89272184 0.12364431
0.12489404 0.87031346 0.63825100
0.62253910 0.37572891 0.10606471
0.64060371 0.36490852 0.62196987
0.63894966 0.87482179 0.12492441
0.62309654 0.86808616 0.63302874
0.06130903 0.43583983 0.31070639
0.06509017 0.43749922 0.80876002
0.05380347 0.94381341 0.31150706
0.04256334 0.93116952 0.81042234
0.55559472 0.43832279 0.30767839
0.55946421 0.44535819 0.80700003
0.55220895 0.93478420 0.31100559
0.55519173 0.94270977 0.80437384
0.43534517 0.05007497 0.30213741
0.44116659 0.06227477 0.80310129
0.44398882 0.56335692 0.30312685
0.44103176 0.56041589 0.79913710
0.94200411 0.06686267 0.31596292
0.93660367 0.05378897 0.81590164
0.94384448 0.55270345 0.31243111
0.95142366 0.55454428 0.82124816
0.44339727 0.44563553 0.18861369
0.45093305 0.44895611 0.67931464
0.44055428 0.93618481 0.18092289
0.44560476 0.94654974 0.68163858
0.94098067 0.43546793 0.19597436
0.94693978 0.44307945 0.69612659
0.93316466 0.95494485 0.19859286
0.92981259 0.94644534 0.69074427
0.05982421 0.06511467 0.19811630
0.05802076 0.05283282 0.69782847
0.05758429 0.55420146 0.19361628
0.06125920 0.56338288 0.69771459
0.55610672 0.04782145 0.18956854
0.55977783 0.06401408 0.68873481
0.56590823 0.55931593 0.19238451
0.56637252 0.56303381 0.68880005
0.29892036 0.04794278 0.43256743
0.30641870 0.05978706 0.93743806
0.31458833 0.55089132 0.44041159
0.30942048 0.54773369 0.93841978
0.81848291 0.06095418 0.44708505
0.79650062 0.07142286 0.94309500
0.80865270 0.55283654 0.44017522
0.81092296 0.56459448 0.94836486
0.30822547 0.44165678 0.06727947
0.31007965 0.43233660 0.55318591
0.33170303 0.95078220 0.06088889
0.29831751 0.93508347 0.55305055
0.80991347 0.44461124 0.06152344
0.80740497 0.42916611 0.54847399
0.80472243 0.94692649 0.04828433
0.81321032 0.94330907 0.56860360
0.19045307 0.43786128 0.44127418
0.20563320 0.41887112 0.93685715
0.18487869 0.92508278 0.43795095
0.20825212 0.93025288 0.95579679
0.68175517 0.44769055 0.43387242
0.70072778 0.43695599 0.93978950
0.70343207 0.94359115 0.44120561
0.68845432 0.94354364 0.92986620
0.19759907 0.05326931 0.06379418
0.18386747 0.05185588 0.55148836
0.18287082 0.54220260 0.04378324
0.19680159 0.55682830 0.55596589
0.67960558 0.05219674 0.05790558
0.69929131 0.05813568 0.55916317
0.68535438 0.55560906 0.05402606
0.69670045 0.54800902 0.56269593
0.43171486 0.31314751 0.05498945
0.43621969 0.31792636 0.53785225
0.43798744 0.80260054 0.05010379
0.45480769 0.80618498 0.56399942
0.94484036 0.30503124 0.05422875
0.94253791 0.31273366 0.56425170
0.93724765 0.80712980 0.06311481
0.94826712 0.80617833 0.56319188
0.06275809 0.31204290 0.45186507
0.06087259 0.30561483 0.93495498
0.05017215 0.79888466 0.42767963
0.04277766 0.80369846 0.93528087
0.55777839 0.30000321 0.42901729
0.55021782 0.31630994 0.94019125
0.56454262 0.81559007 0.43984599
0.55205032 0.81236303 0.93331313
0.43692086 0.18802376 0.43212045
0.44059336 0.19402669 0.93494232
0.44348294 0.69967034 0.43855544
0.44656184 0.68639212 0.93610671
0.94403585 0.19621360 0.45064052
0.94261826 0.18789308 0.94098218
0.92706689 0.68990519 0.44245612
0.94009164 0.67800712 0.95644671
0.06209003 0.18941952 0.05538379
0.05911091 0.18871439 0.56503853
0.06305436 0.69820114 0.06369057
0.05711720 0.68757587 0.54619308
0.55346328 0.20354668 0.05894285
0.54136585 0.19577384 0.56144605
0.56710736 0.69569062 0.05292960
0.57137635 0.69057543 0.54438676
0.30684317 0.30024038 0.18428762
0.30059936 0.29359337 0.69099647
0.30158910 0.80911295 0.17698482
0.29983672 0.81119965 0.68023177
0.80115116 0.30678550 0.19818698
0.81030759 0.31341411 0.69996338
0.80364677 0.81233298 0.19704840
0.81327852 0.80429149 0.68636829
0.29674411 0.18497885 0.30518331
0.30962924 0.19388488 0.81883813
0.31507694 0.69150199 0.29410420
0.31308886 0.69262444 0.79295974
0.79807076 0.17698821 0.30197065
0.80938789 0.19029709 0.81243368
0.79840125 0.69282396 0.31207782
0.82717554 0.68716235 0.79928881
0.18384451 0.18603817 0.18437443
0.19400101 0.17066028 0.70381109
0.17920388 0.70503890 0.19867201
0.18472688 0.68951071 0.69086979
0.67570991 0.19607115 0.19093039
0.68943155 0.19761558 0.69611756
0.68302713 0.70099130 0.19570194
0.69944656 0.68252191 0.69150483
0.18837891 0.30769669 0.29610213
0.17822513 0.29996778 0.80690341
0.20349098 0.80968503 0.32005449
0.19608796 0.80989954 0.80709537
0.68517086 0.29555251 0.31916391
0.69327929 0.30642664 0.81861816
0.68850174 0.81692718 0.31645585
0.70740072 0.80227053 0.80868321
0.99922177 0.99929665 0.00439685
0.99957424 0.00596565 0.49775233
0.00652420 0.49021822 0.99969784
0.99747406 0.50277776 0.50630407
0.50813226 0.00704122 0.99546268
0.50210077 0.00392550 0.49506519
0.50230980 0.50047525 0.00050442
0.50811201 0.51270412 0.50055501
0.99767800 0.25381342 0.25182139
0.98798203 0.24132759 0.75303758
0.99146121 0.75079600 0.24825788
0.00307990 0.75503096 0.74359535
0.48964950 0.24738460 0.24567788
0.50730152 0.26034585 0.75405456
0.49758708 0.74461946 0.24521225
0.50382464 0.75548820 0.74874227
0.25136894 0.00002360 0.25460086
0.26101408 0.99492973 0.74872063
0.25472777 0.49794116 0.25184641
0.25701782 0.49736599 0.74330862
0.74363786 0.99928306 0.24667233
0.74453234 0.99079985 0.74301637
0.75597645 0.51045525 0.25302385
0.75531863 0.50369356 0.74611832
0.23858297 0.23264910 0.01243777
0.24556305 0.24252431 0.49762557
0.25403781 0.74224481 0.98575810
0.25269146 0.74086861 0.49889472
0.74740122 0.25245672 0.00702699
0.74749814 0.24878557 0.50388608
0.75118759 0.75370318 0.99961311
0.74402060 0.76608102 0.50294154
0.99940531 0.00801493 0.25560834
0.99276578 0.99752731 0.75229012
0.00218977 0.49422681 0.25280706
0.00553640 0.50087523 0.75551424
0.49619319 0.98865063 0.24670277
0.50030860 0.00346438 0.74471289
0.50371520 0.50179575 0.24816408
0.50555439 0.50355135 0.74442770
0.26196755 0.99957681 0.00611032
0.23887802 0.99045342 0.49272713
0.25221814 0.48684469 0.99560197
0.25193524 0.49501067 0.49771189
0.74015489 0.00210348 0.99162388
0.76044518 0.00080017 0.50310032
0.75145161 0.50099812 0.00002536
0.74841404 0.49225521 0.49611176
0.00373933 0.24770216 0.99506806
0.00409560 0.25332413 0.50981586
0.99677643 0.74666310 0.00557037
0.99384022 0.74696465 0.49334836
0.49162652 0.25565153 0.99711389
0.49305871 0.25028247 0.49000987
0.50237568 0.74715919 0.99443175
0.50719595 0.75294513 0.49667684
0.24378096 0.24448003 0.23988455
0.24448681 0.24182543 0.75682683
0.25118912 0.75732702 0.24823467
0.24705126 0.74975957 0.74220854
0.74295749 0.24471166 0.25106280
0.75172114 0.25126885 0.75497355
0.74314963 0.75622143 0.25673893
0.76053071 0.74089012 0.74599904
Direct configuration=      3
0.10981586 0.96019478 0.02227977
0.08604527 0.97950319 0.58650228
0.01011633 0.58204089 0.07707169
0.98867320 0.57918000 0.59225022
0.50084138 0.12122372 0.00287982
0.61615374 0.02895810 0.47422934
0.61280734 0.52335714 0.96831469
0.61576968 0.55153690 0.48414328
0.33273816 0.50757910 0.16195570
0.34271645 0.48135551 0.83571278
0.30554544 0.93272749 0.18416813
0.27097356 0.01675228 0.63328256
0.77511646 0.62090845 0.20975294
0.84336470 0.41836996 0.76364192
0.83382232 0.02940114 0.16311792
0.83154625 0.01199936 0.66673526
0.96825466 0.22813414 0.14126100
0.91265434 0.25008089 0.66300681
0.04153706 0.78417752 0.14456303
0.91375269 0.83607012 0.76478480
0.47785682 0.14002869 0.22096962
0.52862122 0.14236174 0.77468042
0.53438792 0.77774415 0.14156163
0.39390976 0.73962915 0.70531745
0.16408789 0.50177009 0.33473946
0.16594031 0.49545759 0.66953428
0.16189829 0.00620322 0.17642087
0.26697716 0.96761217 0.86056169
0.66804457 0.49688375 0.16062459
0.66665039 0.58046295 0.77157307
0.68056542 0.93813430 0.31400727
0.65917437 0.98509781 0.65243198
0.91388457 0.17271907 0.28156744
0.03116725 0.35263179 0.72916548
0.93854617 0.75404484 0.35028012
0.08189830 0.66429384 0.75997947
0.40182495 0.25035007 0.32938116
0.58498860 0.24894492 0.84779615
0.42107001 0.74815715 0.34638552
0.59455017 0.73627676 0.82741052
0.99239481 0.41944222 0.58592434
0.99895161 0.40712358 0.08777949
0.06121711 0.92266690 0.43899781
0.98370689 0.92124859 0.91251439
0.39479589 0.48804206 0.51444127
0.51580860 0.42754769 0.07981289
0.48695317 0.91576746 0.41921513
0.58636062 0.02116964 0.91467590
0.08392782 0.17133264 0.26398420
0.91692983 0.14717273 0.75339889
0.97007899 0.63549388 0.22891941
0.93931529 0.68543314 0.82295540
0.41051068 0.25354047 0.15953174
0.61426619 0.28691151 0.71140801
0.57464138 0.66178137 0.26411435
0.50546249 0.64385917 0.73276468
0.32644285 0.15672684 0.48916800
0.14873695 0.15359480 0.99793179
0.25758197 0.65978003 0.41433540
0.21539684 0.63302581 0.97728642
0.76836148 0.16125194 0.58471325
0.69184789 0.18273693 0.07460573
0.64905897 0.72219191 0.43873792
0.83706284 0.67236204 0.01651643
0.07961500 0.33318815 0.23356753
0.06712759 0.19052164 0.68360071
0.97007220 0.86099753 0.27205285
0.05792312 0.77717774 0.64517067
0.57803182 0.27609041 0.16957824
0.48207468 0.36414457 0.77956377