Li192 P32 S160 I32
1.0
20.433000 0.000000 0.000000
0.000000 20.433000 0.000000
0.000000 0.000000 20.433000
Li I S P
192 32 160 32
Direct configuration=      1
0.10132491 0.15661096 0.25557668
0.08410981 0.23764050 0.83201199
0.20734704 0.69197171 0.38661462
0.10272169 0.65496479 0.75603591
0.63517849 0.06970352 0.27042974
0.52412407 0.15182211 0.84892848
0.74798600 0.64194943 0.09277010
0.85948198 0.45153402 0.74664371
0.10469323 0.26201703 0.35742941
0.14625119 0.01912478 0.87099729
0.32363883 0.42651672 0.24290723
0.32284659 0.59136745 0.76862781
0.65140963 0.23595165 0.39652590
0.82554808 0.16458741 0.01383209
0.51178288 0.37127803 0.65283885
0.60920449 0.70845467 0.74721490
0.16014915 0.00003971 0.17593522
0.18838655 0.09503765 0.77333066
0.20484929 0.53033811 0.37872394
0.21738048 0.51493806 0.88373638
0.59310762 0.00970232 0.41633524
0.60251608 0.99974683 0.92449023
0.71668963 0.64670280 0.50570062
0.48448508 0.62760942 0.88209862
0.96396950 0.09747923 0.52090728
0.09173583 0.11981072 0.98531669
0.08742118 0.50551521 0.41340485
0.32136854 0.83837944 0.98289915
0.60683398 0.18594679 0.26516708
0.72934861 0.96801171 0.64155827
0.51166016 0.57014695 0.40780550
0.73462246 0.74793038 0.91218234
0.17363941 0.00421143 0.34698644
0.01949047 0.09753211 0.86975436
0.27873455 0.59309307 0.20903289
0.10194343 0.84609802 0.75017327
0.74307687 0.07937626 0.34686862
0.74512520 0.22590355 0.89494106
0.83086989 0.77802429 0.42758930
0.64548092 0.67287979 0.99112552
0.25695242 0.11714993 0.26697806
0.13522403 0.30571764 0.02104642
0.14785916 0.60332370 0.26453360
0.97420293 0.64105589 0.13790607
0.49969027 0.13783141 0.36157397
0.80084422 0.99946761 0.85862984
0.73944343 0.60604913 0.32956271
0.74413096 0.55608169 0.85582412
0.15712729 0.51454397 0.72641238
0.14100771 0.65818477 0.48916858
0.22029994 0.72862901 0.89607837
0.10043927 0.99611031 0.60487107
0.58577954 0.50130430 0.88262205
0.79735640 0.30448831 0.57455991
0.58904693 0.68079959 0.26188276
0.72257593 0.87547599 0.74111193
0.23663138 0.15038700 0.05954401
0.13236941 0.28426963 0.52016194
0.01149493 0.85336878 0.11125360
0.22614054 0.91044463 0.84592356
0.68181151 0.33845837 0.95359168
0.64183505 0.36224711 0.73568231
0.62898943 0.89274679 0.24377426
0.42799313 0.73198458 0.65501737
0.15448257 0.41971017 0.25896342
0.24314163 0.33351998 0.60282858
0.14757493 0.82499957 0.02070511
0.22811661 0.81268135 0.59678827
0.65173036 0.55327189 0.74380713
0.74132728 0.42041300 0.81840777
0.63410025 0.77754923 0.11633287
0.66218115 0.75456737 0.60167146
0.87042810 0.53728771 0.04598739
0.87942368 0.38921490 0.49148538
0.11985385 0.95121261 0.03868004
0.00557335 0.88893433 0.60879364
0.49411298 0.41138914 0.11018639
0.61301532 0.47344622 0.58536770
0.65558434 0.84793255 0.01378599
0.33007313 0.91638329 0.76753245
0.21888695 0.47627410 0.15972744
0.10708677 0.48231092 0.55687986
0.10985625 0.76741317 0.15077402
0.21997112 0.92541801 0.65285245
0.58644623 0.35873687 0.27303076
0.66645823 0.33079443 0.52144857
0.63115321 0.00059240 0.12851827
0.66640041 0.78739092 0.40686753
0.49036674 0.12601211 0.10882006
0.22092774 0.38176670 0.75600148
0.14082533 0.87750225 0.24416363
0.07786203 0.75481240 0.63573406
0.63594077 0.51532197 0.29499503
0.59826477 0.24983752 0.63613019
0.74298261 0.92368659 0.16117426
0.76265760 0.11570917 0.72740834
0.64647371 0.27318333 0.10536978
0.37886677 0.16725252 0.71507279
0.47007156 0.61984129 0.06244676
0.31989741 0.49650347 0.65958505
0.79054745 0.24078718 0.11367541
0.73460975 0.18440276 0.58523895
0.82375877 0.53654753 0.18221553
0.76444094 0.58681675 0.65457103
0.39263401 0.96917061 0.40091793
0.24079215 0.15493286 0.59698930
0.32597931 0.66534503 0.00852893
0.50749840 0.59467968 0.56031360
0.75787987 0.09712053 0.16139613
0.97001374 0.13180755 0.71300362
0.88394928 0.68354891 0.24320977
0.96865839 0.64397723 0.64671617
0.40393733 0.18137680 0.23566708
0.47347421 0.13883341 0.60934248
0.40242246 0.66855494 0.22559118
0.33756074 0.73631071 0.51494134
0.98864090 0.16022207 0.13630359
0.91076023 0.25867738 0.85080189
0.82093317 0.73197678 0.11014175
0.85661327 0.60257941 0.74030406
0.25057556 0.89798081 0.16556460
0.31872482 0.02292838 0.62997034
0.10134204 0.49922261 0.07878653
0.36174180 0.46287143 0.80544014
0.82891124 0.33831868 0.98077907
0.85192314 0.01264457 0.68469364
0.85523613 0.67826599 0.00773983
0.90505203 0.60136484 0.51733699
0.21264388 0.19841551 0.90025403
0.24370668 0.15714800 0.43254253
0.43553296 0.74488037 0.12550976
0.41977875 0.40288075 0.49406965
0.64956319 0.17720135 0.99149587
0.64971878 0.11958959 0.48645269
0.90959562 0.73497893 0.86696813
0.89435453 0.49020493 0.61015034
0.35642881 0.02701320 0.21126608
0.39590934 0.10341532 0.51763849
0.37697147 0.51506591 0.12382467
0.24393883 0.67304825 0.59533120
0.85433973 0.02090464 0.19933805
0.00014885 0.34063971 0.63680167
0.00680111 0.65464684 0.35208363
0.81710055 0.72421147 0.58519826
0.68742825 0.50247162 0.16374058
0.38550361 0.44974249 0.97159197
0.14289638 0.83163667 0.50250205
0.15825453 0.66273110 0.00472106
0.74443222 0.40826789 0.29208977
0.26901928 0.31411269 0.08989251
0.89303905 0.98120789 0.37579210
0.97656080 0.90055903 0.93759660
0.34195835 0.52057455 0.33355098
0.39922036 0.04050576 0.95801505
0.44088008 0.86836426 0.48120374
0.31284691 0.04422915 0.80064987
0.82439790 0.48128428 0.34702176
0.84831083 0.17717646 0.47641538
0.88836464 0.89628055 0.48525468
0.93317566 0.85144088 0.75833120
0.28557637 0.34175321 0.44458068
0.26202454 0.33079243 0.90080250
0.40455187 0.75014752 0.36075036
0.38887845 0.76145027 0.86415609
0.97982545 0.39294841 0.37789100
0.00337201 0.40062995 0.87254932
0.71087550 0.85975123 0.53762348
0.79943747 0.85383684 0.01711407
0.40464864 0.25744769 0.37181973
0.37067414 0.27956326 0.97612477
0.31426310 0.88873038 0.29455957
0.27820150 0.72691577 0.11471337
0.77166588 0.31839493 0.40821987
0.01603755 0.56737401 0.90397380
0.75916925 0.91610046 0.32907027
0.63544973 0.01056420 0.74744683
0.34538398 0.24989421 0.56804715
0.49623634 0.34843131 0.87084575
0.45246066 0.87254113 0.28633518
0.50627903 0.91271078 0.09665065
0.90114711 0.34827034 0.25133208
0.88588035 0.03674886 0.06855974
0.99398019 0.86351370 0.36058540
0.89564400 0.14607007 0.23037199
0.99082723 0.40052246 0.10470016
0.37739600 0.30078199 0.79434548
0.27497463 0.83830464 0.42339782
0.50228369 0.86489289 0.83334929
0.91492137 0.26983693 0.35767905
0.72044617 0.45141559 0.66203337
0.89386052 0.84393895 0.24793845
0.51260409 0.95010352 0.64115335
0.37984249 0.60979234 0.60884005
0.12551870 0.62104190 0.88542180
0.62390317 0.87975127 0.62676147
0.87015067 0.39057496 0.87612031
0.34657711 0.11598127 0.12523267
0.38531599 0.38331929 0.36297527
0.61896113 0.63826683 0.38440589
0.12824814 0.38400176 0.13855490
0.12818314 0.37668211 0.63937747
0.62034440 0.63318440 0.86302203
0.84829173 0.86975054 0.88119307
0.12252549 0.13424826 0.38217719
0.65668642 0.11807045 0.86783861
0.63158113 0.39166274 0.14133949
0.87171861 0.12781008 0.60947095
0.37623753 0.88884632 0.88253028
0.98865937 0.01146208 0.99125503
0.01227095 0.97822023 0.49395594
0.99007643 0.48078317 0.99263539
0.98884027 0.48358797 0.49253256
0.50877361 0.01992570 0.02485381
0.47807234 0.99816334 0.51264780
0.49594782 0.51075061 0.99430689
0.52326080 0.46916285 0.50011507
0.99518225 0.26496397 0.23773621
0.99986315 0.25515622 0.74460493
0.00179074 0.75425542 0.25233351
0.99854289 0.72765087 0.75090229
0.49985477 0.25275385 0.26833386
0.50136503 0.23955313 0.73414215
0.50650604 0.77656738 0.23609625
0.48962822 0.75523712 0.76292795
0.25085674 0.98861408 0.24824593
0.22607633 0.98242170 0.75807756
0.24020233 0.51107086 0.26972865
0.25632653 0.49811076 0.76775226
0.73749821 0.00932596 0.25043449
0.75882083 0.99771764 0.75452040
0.75139325 0.51698269 0.26743491
0.75186703 0.51092225 0.75464310
0.23568708 0.25139930 0.99590810
0.24056420 0.24547283 0.52266517
0.24962848 0.74895971 0.00368281
0.23042487 0.74223360 0.49977344
0.73984658 0.24985095 0.00773196
0.73039885 0.24387031 0.48997468
0.74111304 0.75427066 0.02974591
0.73294977 0.75365869 0.50176581
0.45187001 0.17773916 0.45299321
0.44814177 0.18740778 0.96068181
0.44918646 0.66727209 0.45020449
0.43967042 0.69336783 0.94863856
0.95180708 0.19173300 0.44070181
0.92759063 0.19662329 0.93799918
0.91757364 0.69434039 0.44138317
0.95530497 0.67112521 0.95909934
0.17857207 0.04580780 0.06076104
0.20434818 0.03432480 0.57184123
0.19987613 0.55068091 0.06581846
0.20668802 0.55220363 0.58157678
0.68951653 0.07330814 0.06145110
0.69913679 0.06001526 0.56729031
0.65991796 0.56918828 0.05799799
0.69201794 0.54458532 0.56460741
0.31524942 0.04464722 0.46289417
0.28404122 0.05432622 0.93907626
0.29915174 0.56065788 0.45242394
0.31904976 0.53771963 0.95137865
0.81895044 0.05487940 0.44388213
0.81272600 0.07025606 0.95358631
0.80371104 0.56202609 0.44951670
0.78810450 0.58870343 0.95642496
0.04345741 0.21649555 0.04976226
0.05161263 0.22821638 0.57465748
0.06775311 0.70106850 0.07443463
0.03482161 0.68523447 0.55801145
0.56219164 0.20428975 0.07608602
0.56861546 0.17186615 0.56032917
0.54417300 0.70690689 0.06121052
0.57281917 0.69682963 0.56430766
0.12682884 0.12579469 0.88097435
0.12439203 0.61587307 0.37674763
0.62436745 0.11678303 0.37089844
0.43817494 0.45587031 0.20426788
0.42869180 0.44229923 0.68891983
0.44141420 0.96290019 0.18223045
0.42019926 0.96031866 0.69308285
0.91020974 0.45233068 0.19558639
0.95808885 0.43551327 0.68767104
0.94533284 0.93506259 0.17964088
0.93625220 0.94049694 0.67648810
0.20395148 0.31786975 0.31170531
0.19593493 0.29471041 0.81580618
0.18266117 0.79418519 0.32455747
0.19509371 0.79919443 0.80992267
0.68917462 0.30417162 0.32110643
0.70493446 0.30916084 0.82374050
0.68323201 0.82458599 0.30184403
0.68934515 0.78901550 0.80561763
0.32049667 0.31499640 0.20212754
0.30766025 0.29918426 0.69649005
0.30636217 0.81162434 0.20523925
0.31278206 0.80968154 0.69607339
0.79258445 0.32534398 0.21016941
0.80961211 0.34064280 0.69022621
0.80067620 0.81603181 0.18578633
0.78550026 0.80662512 0.67945893
0.04953395 0.45880166 0.30794393
0.07978778 0.45505270 0.79890971
0.05863519 0.95405895 0.31219262
0.03959514 0.92684017 0.80805731
0.55409687 0.44853475 0.32548747
0.55987834 0.43187121 0.79131754
0.53766168 0.95159661 0.31495476
0.54788644 0.95849042 0.81099340
0.12345606 0.87276375 0.13353775
0.13009257 0.85254490 0.63905672
0.62811625 0.36798488 0.62589120
0.62086656 0.89018343 0.12097317
0.19640165 0.20410606 0.19591686
0.18004137 0.18724463 0.69893257
0.19359289 0.68936208 0.19591443
0.19934481 0.68691636 0.69422444
0.68743015 0.20617848 0.18665495
0.70454459 0.21644492 0.68906135
0.69059488 0.69131899 0.20058646
0.70279134 0.67620605 0.67872096
0.42080979 0.07115992 0.30077336
0.43135468 0.07427871 0.80609332
0.44526127 0.58247574 0.30860132
0.44577516 0.56357229 0.78969979
0.93002124 0.05642314 0.29126917
0.93459723 0.05723812 0.78862463
0.93477343 0.57448210 0.29390305
0.94299512 0.54374370 0.80623875
0.06089154 0.06602106 0.19078594
0.06020288 0.05666911 0.69751748
0.05188402 0.55509836 0.18042871
0.06466213 0.55889633 0.68067735
0.55380512 0.08133494 0.19800136
0.55004480 0.06196372 0.69007761
0.58049130 0.56228341 0.21193877
0.54931035 0.55706325 0.67847196
0.31343649 0.19191843 0.31602481
0.31528836 0.18342217 0.80100490
0.31182085 0.68973780 0.30888717
0.30482936 0.69622763 0.81868479
0.80641470 0.18136857 0.30631381
0.82027139 0.20125145 0.79450400
0.79356579 0.70675782 0.31909950
0.81404376 0.68660814 0.81143048
0.35602127 0.13237775 0.61436772
0.36836974 0.62903647 0.12781666
0.86327882 0.12541088 0.12010003
0.86557296 0.62699943 0.12394129
0.85983216 0.61960491 0.62731125
0.18935785 0.43923370 0.46105471
0.20246883 0.42885263 0.96219801
0.20303275 0.93072729 0.43817009
0.17565204 0.92577838 0.94258310
0.69193359 0.44023185 0.43453916
0.69147896 0.46902534 0.92270870
0.69589655 0.95143529 0.45350974
0.69319354 0.94792062 0.94903929
0.45012464 0.32184910 0.04452352
0.45568061 0.30434261 0.55365774
0.43443988 0.82034908 0.05173262
0.43321482 0.78917170 0.55253793
0.91634086 0.30960469 0.05558570
0.92041350 0.31251918 0.55049466
0.93135302 0.78995268 0.05889095
0.93827115 0.80825413 0.55779373
0.05041802 0.31594999 0.44053806
0.04250783 0.31366846 0.93835843
0.04856965 0.78072950 0.43572921
0.04348086 0.80939798 0.94395324
0.56985821 0.30032214 0.45196265
0.57361809 0.29233153 0.93536951
0.53929162 0.80308010 0.43789955
0.55730974 0.81456643 0.94061426
0.31016775 0.44289005 0.08461074
0.31493368 0.42218914 0.55827624
0.29430166 0.93729095 0.06203787
0.31146127 0.90762311 0.56367577
0.78707523 0.46171667 0.05415011
0.80908769 0.43071032 0.55895666
0.80036048 0.94991357 0.06797178
0.81199769 0.94267177 0.56204988
0.37936288 0.35828061 0.88906573
0.38086632 0.85203718 0.37824658
0.86454752 0.36924984 0.36106796
0.87464945 0.87027494 0.37351195
0.24033402 0.99322303 0.00143554
0.25747771 0.97823465 0.50851024
0.25583835 0.49199369 0.00915431
0.25170651 0.49496732 0.51019077
0.74964020 0.01539280 0.00859100
0.76266415 0.00511927 0.50782801
0.72491882 0.52194069 0.00349127
0.75215396 0.48908050 0.50026989
0.25798699 0.25766395 0.25423506
0.24522251 0.23791003 0.75124185
0.24660037 0.74743958 0.26066869
0.25432171 0.74865436 0.74490254
0.74410888 0.25069159 0.25863245
0.76763626 0.26587170 0.74077912
0.74349177 0.76000293 0.24764248
0.75085742 0.73933851 0.74359657
0.99829310 0.99751902 0.23862284
0.00100845 0.99250598 0.74271237
0.98898512 0.50565143 0.24263270
0.01144909 0.50402883 0.74608288
0.49063666 0.01648878 0.25026531
0.48449029 0.01459894 0.75140407
0.50064411 0.50922004 0.26047052
0.50155936 0.49081628 0.73984735
0.97392423 0.26242622 0.99695562
0.99232257 0.26280689 0.50562175
0.00515830 0.74335121 0.00881225
0.98403094 0.74531636 0.49340790
0.51004672 0.25387760 0.99930666
0.51253690 0.24041033 0.49944073
0.49850745 0.76329173 0.99799384
0.50313539 0.73475535 0.49817981
Direct configuration=      2
0.08411246 0.14738687 0.23043907
0.09731746 0.23049199 0.85029779
0.22611302 0.66529038 0.40631540
0.11078374 0.66125573 0.76434586
0.64318889 0.03951750 0.28808709
0.51614383 0.20526244 0.86163901
0.74850067 0.64319794 0.09147894
0.87309051 0.46734008 0.75125197
0.08437994 0.26015039 0.35024447
0.13490010 0.99287159 0.86070106
0.30620656 0.39012369 0.26605860
0.35762319 0.59575124 0.75603468
0.66697168 0.23852314 0.40633432
0.81508864 0.15690558 0.99276031
0.52671354 0.36657024 0.63918212
0.60371660 0.72382990 0.76129913
0.14081800 0.98312370 0.16135476
0.14680762 0.09313016 0.76881562
0.19818815 0.51912048 0.37300238
0.23470554 0.52103835 0.84441266
0.59919512 0.02130619 0.43585982
0.59306815 0.00356999 0.92743621
0.71565903 0.65269546 0.48480540
0.48493960 0.63939929 0.84908215
0.99722903 0.09925051 0.53380504
0.09589798 0.10424187 0.99203164
0.03450810 0.54395479 0.37780254
0.31553927 0.82161173 0.99600845
0.60407457 0.17155071 0.28495498
0.73940493 0.97745843 0.62881012
0.51061957 0.55871485 0.39441999
0.74648186 0.75699939 0.88206880
0.14566252 0.00250340 0.34551884
0.00714825 0.12385737 0.89147026
0.29144870 0.59650782 0.21839442
0.08325860 0.85947805 0.73033427
0.74288971 0.08179643 0.33175756
0.75926086 0.23013212 0.88696152
0.83294194 0.78391313 0.41081955
0.65160967 0.67105030 0.98440535
0.23168733 0.08895651 0.20208096
0.13447338 0.27904489 0.01914517
0.14134443 0.59582846 0.26833856
0.97197272 0.64265123 0.11247020
0.51487604 0.13746990 0.37172562
0.78426738 0.98900131 0.84688509
0.76420363 0.60490673 0.33755208
0.76592080 0.57924572 0.83581539
0.17105485 0.49037725 0.71183623
0.13394694 0.62801091 0.50426303
0.23120740 0.70684471 0.89684970
0.06991932 0.97228603 0.60565266
0.58753938 0.52808503 0.90323415
0.74321352 0.31260605 0.60256088
0.58361220 0.64674876 0.24265895
0.72870338 0.88724868 0.74610358
0.27968200 0.15163929 0.02762640
0.15626376 0.27741406 0.51491553
0.01434513 0.84683744 0.15333333
0.24056206 0.90461709 0.84650195
0.66579210 0.33995592 0.98229670
0.60190492 0.35559083 0.74883684
0.59350520 0.87156922 0.23202421
0.38571806 0.75345464 0.66563451
0.15173641 0.42811720 0.25800126
0.25525506 0.33944899 0.58857615
0.14579927 0.79176118 0.03562296
0.20791554 0.80916308 0.60297038
0.65052017 0.55377723 0.74674534
0.74185605 0.42644021 0.83950651
0.62223928 0.76852424 0.12288868
0.66121899 0.74960356 0.59895694
0.86336350 0.54662413 0.03023220
0.87446763 0.36818904 0.49215487
0.09912104 0.95287409 0.04151873
0.99527911 0.88641871 0.58323277
0.51649902 0.42466184 0.08066295
0.60503154 0.48050861 0.61303979
0.64950168 0.86364680 0.00359766
0.32497815 0.91812347 0.74176987
0.22726193 0.45851394 0.14394401
0.09766180 0.45961730 0.53843421
0.12481505 0.76338099 0.16662116
0.19292402 0.95232117 0.65138816
0.55726922 0.36852504 0.25286461
0.62838863 0.37736422 0.51368711
0.61801585 0.99566719 0.10314922
0.65500604 0.76148001 0.42123053
0.47563852 0.14005345 0.11043118
0.23774886 0.37956288 0.76113068
0.15790511 0.88407825 0.24133347
0.09806176 0.73528792 0.63016827
0.67173647 0.49939890 0.33757279
0.63286317 0.26071404 0.62048070
0.71896937 0.91970505 0.16943259
0.75113035 0.11186674 0.75856716
0.67794085 0.26781088 0.11502804
0.37459222 0.14985624 0.73420990
0.50270356 0.61834488 0.09770966
0.34473502 0.48519495 0.65507526
0.82942373 0.23337043 0.09629221
0.77325211 0.17675375 0.59300038
0.84275470 0.54549310 0.19276528
0.76574868 0.57112407 0.62335954
0.38028708 0.97782213 0.39409189
0.25269536 0.16817629 0.60689862
0.34000491 0.64911388 0.01322575
0.48244126 0.59261711 0.57155891
0.75024800 0.08307600 0.18017979
0.94780796 0.12689691 0.73838851
0.88139489 0.68704117 0.22546831
0.97723074 0.64425491 0.63868394
0.38226480 0.18721373 0.21923480
0.47343544 0.16519298 0.62959283
0.40325559 0.67181821 0.24286581
0.33631620 0.72534361 0.50341976
0.96486825 0.13500434 0.11321329
0.89454848 0.26535513 0.83972236
0.82045956 0.74918470 0.09942634
0.85524525 0.60174180 0.72715177
0.25802068 0.90430253 0.13132747
0.30072614 0.03006811 0.64193601
0.11445094 0.50078878 0.05515736
0.36319600 0.43458216 0.81181383
0.82307076 0.34965640 0.00596744
0.84556822 0.01654598 0.69796993
0.83075612 0.67929557 0.98835255
0.88831423 0.60337368 0.50722237
0.21401153 0.17504091 0.90924390
0.24642162 0.16758416 0.41311533
0.44379213 0.74130524 0.13751176
0.41976474 0.38970543 0.51290244
0.66108280 0.18231392 0.98655186
0.66905146 0.14319261 0.48364956
0.96229231 0.75244827 0.86342045
0.89878967 0.50564119 0.59651271
0.33318407 0.99105729 0.22887357
0.40023890 0.10704051 0.51746591
0.37135636 0.52338905 0.12335150
0.24361863 0.65384014 0.58936889
0.85292949 0.00581065 0.21978340
0.01527689 0.32113934 0.63316306
0.04268084 0.70041141 0.37888870
0.82651552 0.72679609 0.59401991
0.68619275 0.50900635 0.16731833
0.40493037 0.39593200 0.97069412
0.13939224 0.84624955 0.51422123
0.16507711 0.64033776 0.01265447
0.75736120 0.39637069 0.26369265
0.23575960 0.31046783 0.11100757
0.88850656 0.00131526 0.40823832
0.99391121 0.90084601 0.91390924
0.34958095 0.51992242 0.33070947
0.40641905 0.01263949 0.94321358
0.44552936 0.87676817 0.46781349
0.29036740 0.06115993 0.82197991
0.84547273 0.48917013 0.33792535
0.84130963 0.18709367 0.46809578
0.89177855 0.88055331 0.48896096
0.89852567 0.85656212 0.75307344
0.25900610 0.33866349 0.40698575
0.25633138 0.35192283 0.92799529
0.43758654 0.76251687 0.38133838
0.38025491 0.76547964 0.85898803
0.97474834 0.39764879 0.41084282
0.00076944 0.38936715 0.86259927
0.73052792 0.87309582 0.51945342
0.78998893 0.86014360 0.00311167
0.36915790 0.25518922 0.37257997
0.36073184 0.28479880 0.96210359
0.26251800 0.92184110 0.34223614
0.30511584 0.71871063 0.12571889
0.76674523 0.33372157 0.41177916
0.01560169 0.56895174 0.88977447
0.76554736 0.92100658 0.32406747
0.63144585 0.04509534 0.76546498
0.35360570 0.23973331 0.57707887
0.49224786 0.36126800 0.86160224
0.40942754 0.85443535 0.27626456
0.51483038 0.90839188 0.09743219
0.91210810 0.37036641 0.25998016
0.85907004 0.04601262 0.06747184
0.98333719 0.87011087 0.36718193
0.89388002 0.18156373 0.24050406
0.99541406 0.40368601 0.10388451
0.36253935 0.26811388 0.79906943
0.27479194 0.83972582 0.45653411
0.49984301 0.87059979 0.85239729
0.90006352 0.26783182 0.35435705
0.73725100 0.42080929 0.68192982
0.89050131 0.83869441 0.27992552
0.55340832 0.98792142 0.62860353
0.37026979 0.60961278 0.62848851
0.13546207 0.61104759 0.89681526
0.62887745 0.88020248 0.63005144
0.87222107 0.39774597 0.87617551
0.35028610 0.11568587 0.12735361
0.38581436 0.37369367 0.38569994
0.62283760 0.63833442 0.37631928
0.11830144 0.37729878 0.13324977
0.14241665 0.38396337 0.64745325
0.62170257 0.63757870 0.86231686
0.85529464 0.87052640 0.87804224
0.13054423 0.13743327 0.37461770
0.65489760 0.13645750 0.86234750
0.63805880 0.39549504 0.13147067
0.88047846 0.11745733 0.61329073
0.37053414 0.88943010 0.89028077
0.99516755 0.00919427 0.98962232
0.00522269 0.98036869 0.49859347
0.99984116 0.48349231 0.98963717
0.98871027 0.48477673 0.50165704
0.51094818 0.02441003 0.02870340
0.49557958 0.99767463 0.50137911
0.47836335 0.52010145 0.98426401
0.51239854 0.48715915 0.49933684
0.99902810 0.27352900 0.24035169
0.00489767 0.25101702 0.75901128
0.00120616 0.74346213 0.24580023
0.00145844 0.72679404 0.75365046
0.49518520 0.24498527 0.27357683
0.49654425 0.24008569 0.73497615
0.51106207 0.75636161 0.25062469
0.48320081 0.76234841 0.76370335
0.21530564 0.98468298 0.24153291
0.23380429 0.98816241 0.76451823
0.25529028 0.49743603 0.25947526
0.27457631 0.49115060 0.75197430
0.73693968 0.99581557 0.25014019
0.73874176 0.00341394 0.74127999
0.75670855 0.51746220 0.26726453
0.76435744 0.50843766 0.74430417
0.25573726 0.26284393 0.00214762
0.26409790 0.25037949 0.50182990
0.25478502 0.73108468 0.00796138
0.22576756 0.73075184 0.50702227
0.74828112 0.26205870 0.01113874
0.74707513 0.24090856 0.50344043
0.74900475 0.74961930 0.00281929
0.75678351 0.75406364 0.50594308
0.44484994 0.19565434 0.44376939
0.43786502 0.19121921 0.95057463
0.44644676 0.66443775 0.45314251
0.43530821 0.70396683 0.94791069
0.95138620 0.18096854 0.44036907
0.92678417 0.20361013 0.93468564
0.92013467 0.69120185 0.43611488
0.94204960 0.66402975 0.94750691
0.18776513 0.04937151 0.05988473
0.18522249 0.05255706 0.57365771
0.21061384 0.55470953 0.08280434
0.18412574 0.53875363 0.57082640
0.69659762 0.07838074 0.06289973
0.70200691 0.06114859 0.55958181
0.67249521 0.56773848 0.06158635
0.67519466 0.55117689 0.55354420
0.30154040 0.04775323 0.45387951
0.28630732 0.06745054 0.93895428
0.29863589 0.55653137 0.45080914
0.30424538 0.55899860 0.94531573
0.80907445 0.07352955 0.43162547
0.82502456 0.05936346 0.94486721
0.79690882 0.56431546 0.44878716
0.78685696 0.57077026 0.94285871
0.04747077 0.20616973 0.05719882
0.06696518 0.21192047 0.55420152
0.07282789 0.69696419 0.05616756
0.03502044 0.67185600 0.54564341
0.56339570 0.20877980 0.06581364
0.56546602 0.19096997 0.55271208
0.55639936 0.70521564 0.05790554
0.57108379 0.67953571 0.55808834
0.11225313 0.10615581 0.87679036
0.13176595 0.60561987 0.38596189
0.63404068 0.11583147 0.37763738
0.45315890 0.42878282 0.18359827
0.43678952 0.43222447 0.69930030
0.44247425 0.94415967 0.19157742
0.43545044 0.94858290 0.70892721
0.92329054 0.46591908 0.17591833
0.95750153 0.44042789 0.68040965
0.92772746 0.92669703 0.20104518
0.95150266 0.93827407 0.68549562
0.19858340 0.32506779 0.31336691
0.18788149 0.29789242 0.81218305
0.20333244 0.80696566 0.32365593
0.17959140 0.79026082 0.81521487
0.68999174 0.31760623 0.30692901
0.68698671 0.31547845 0.80869155
0.67923516 0.82435621 0.29849286
0.68409996 0.79565947 0.80216921
0.31323139 0.30456617 0.19756998
0.29891089 0.29577211 0.69983326
0.32635640 0.80951203 0.21222128
0.29484373 0.80794627 0.69027246
0.81160109 0.29832484 0.19115462
0.81758764 0.32127004 0.69233979
0.80321008 0.82299978 0.19318597
0.80547578 0.79955138 0.70143859
0.03356327 0.43981322 0.29313835
0.07915796 0.46147949 0.79515435
0.05410884 0.93744426 0.30326641
0.03862035 0.92462993 0.81889096
0.55643627 0.46595760 0.30796489
0.57019046 0.45353551 0.80647781
0.54913313 0.96035497 0.31763542
0.55786371 0.95923230 0.82313153
0.12876467 0.87308934 0.12464530
0.10553055 0.86742002 0.61897857
0.63434064 0.36512014 0.63264040
0.62594065 0.89057677 0.11077389
0.18241958 0.21419669 0.18928020
0.16865858 0.19367729 0.69216901
0.20620863 0.69370327 0.20086959
0.18730921 0.69300481 0.68492725
0.68621976 0.19544308 0.19103114
0.70646805 0.19391461 0.68794135
0.69205973 0.70034457 0.18744879
0.68487136 0.67809457 0.69040166
0.43149259 0.07469451 0.30130268
0.43725126 0.07143442 0.83168921
0.44537680 0.57397461 0.29270976
0.43404751 0.54256905 0.81655047
0.93487052 0.05560897 0.29954206
0.91831378 0.04282585 0.81516708
0.94096462 0.57509523 0.30539551
0.94553025 0.56583041 0.79532330
0.03613869 0.04949447 0.17225893
0.04863565 0.05531640 0.70530252
0.06308300 0.56101106 0.18745489
0.06760697 0.57023050 0.68862335
0.56065298 0.06576439 0.19140188
0.53453567 0.06560353 0.70550265
0.55867251 0.55333973 0.16747792
0.53856147 0.56168985 0.68807787
0.29017591 0.18905318 0.31534823
0.29017190 0.17701369 0.80739265
0.31280143 0.68268913 0.31973168
0.30829753 0.69116831 0.80162851
0.80813426 0.19652096 0.31586521
0.81690529 0.20059217 0.79101907
0.81014731 0.71616158 0.30785305
0.80444620 0.68008065 0.81203712
0.36989534 0.12460474 0.62977290
0.38816493 0.64699466 0.13127139
0.85572832 0.12670243 0.14307592
0.86344570 0.63465339 0.11698062
0.87045720 0.61948144 0.62289202
0.18076829 0.43741174 0.45563464
0.17842223 0.45264045 0.95705997
0.18620417 0.92806765 0.44206891
0.18228137 0.92908766 0.95228524
0.70099015 0.43895846 0.42725006
0.68059553 0.45005378 0.94091824
0.69979080 0.94626090 0.43478189
0.69444432 0.95763377 0.94329992
0.45763414 0.32424009 0.04743254
0.45046587 0.29899990 0.56507158
0.43223869 0.81383114 0.05353002
0.44013984 0.79746453 0.56009862
0.92834464 0.30809730 0.04813232
0.93408859 0.30175724 0.55525069
0.94308487 0.78588884 0.05375292
0.93277818 0.79273000 0.57115582
0.04863955 0.32063621 0.44505778
0.05212683 0.30018942 0.93106581
0.03979425 0.80192947 0.44456650
0.04424512 0.79306374 0.92903542
0.56056421 0.30853615 0.43924495
0.56976511 0.28461348 0.92381963
0.53597942 0.79422050 0.43648620
0.56242657 0.81424959 0.94446822
0.31316707 0.43446643 0.05702963
0.30807555 0.43725840 0.55854630
0.32653601 0.95691981 0.04038357
0.28114147 0.92820147 0.57339059
0.79167070 0.46062866 0.05851665
0.80425616 0.44440090 0.55888174
0.80134094 0.94949517 0.07401855
0.82338788 0.95028916 0.54021580
0.37294103 0.35160726 0.87751795
0.36212243 0.87509841 0.38546388
0.86414092 0.37407902 0.37193757
0.86320078 0.88793833 0.38395405
0.24379654 0.99321147 0.99629660
0.23850922 0.99123187 0.50884192
0.25325715 0.49553141 0.00755451
0.25074074 0.49547787 0.50937033
0.75294225 0.01410587 0.00387144
0.75194204 0.00764200 0.49020600
0.73215511 0.51024352 0.99970513
0.74028835 0.50028018 0.49765144
0.24524672 0.25612665 0.25288601
0.23577150 0.23629832 0.74614137
0.26215976 0.75375448 0.26612991
0.24234191 0.74842305 0.75479289
0.75219001 0.24715252 0.24973775
0.75119657 0.26855864 0.74948890
0.74020898 0.76569384 0.24980382
0.74846790 0.73354636 0.75119281
0.99038390 0.99575115 0.24893314
0.98539945 0.99527367 0.76088291
0.98750910 0.51447743 0.23737835
0.00656015 0.50438073 0.73830825
0.49664602 0.01253416 0.25141534
0.48496233 0.01126238 0.77006432
0.50226185 0.50823840 0.23440973
0.48777244 0.50031756 0.74331908
0.99361350 0.25399257 0.98963074
0.99780945 0.25100949 0.49658214
0.99668137 0.73280271 0.99558581
0.98142267 0.74325904 0.50017302
0.50315417 0.24902781 0.99859541
0.51136048 0.25007710 0.50140513
0.49372018 0.76356200 0.99764145
0.50107344 0.73141006 0.50963109
Direct configuration=      3
0.04918355 0.14272285 0.25516413
0.10081674 0.23254485 0.86816927
0.23876986 0.67981440 0.39797037
0.11128009 0.62950847 0.75849659
0.64254805 0.02123668 0.31159297
0.50301952 0.17138413 0.85490908
0.74645048 0.65833895 0.10508496
0.87017626 0.46018635 0.76206256
0.09239965 0.25346050 0.33639677
0.13987206 0.00036414 0.85695456
0.28519342 0.38053563 0.28420299
0.30702780 0.58377489 0.75028870
0.60978140 0.24943276 0.36023219
0.81548859 0.15402535 0.02137565
0.51350332 0.35344486 0.63708284
0.60887374 0.73840585 0.74732360
0.15050179 0.00351399 0.17137106
0.15788076 0.09235351 0.75482109
0.19181184 0.54020847 0.34632406
0.21655392 0.49075505 0.85518941
0.61198209 0.04319148 0.43961449
0.60726501 0.03163944 0.92514057
0.72696194 0.64166899 0.46522096
0.48325082 0.63880264 0.85924728
0.96847535 0.09762434 0.49868763
0.12016345 0.09216193 0.98022757
0.01103520 0.58842423 0.38088097
0.33584030 0.83851594 0.01988762
0.59754504 0.15949689 0.25914281
0.70386747 0.00883172 0.63006007
0.49550721 0.56640003 0.38342820
0.76018404 0.77571603 0.90158794
0.15680770 0.00889433 0.32954854
0.00492139 0.10988389 0.88484989
0.27756368 0.57786734 0.20128835
0.10349021 0.85016088 0.75095109
0.73399460 0.11971035 0.31161658
0.69242848 0.26934069 0.88948858
0.83079749 0.77305075 0.40480556
0.64687145 0.68446064 0.98145495
0.23939190 0.09631754 0.21231844
0.13045659 0.26853841 0.03855463
0.11445514 0.62782714 0.25672711
0.97289415 0.65554549 0.14052079
0.50436875 0.14098907 0.38080762
0.79605912 0.00203729 0.84640571
0.75819868 0.61228364 0.29993345
0.75425131 0.59838334 0.84530474
0.17960433 0.50265228 0.65136236
0.11831104 0.64175895 0.47830152
0.21957686 0.71997843 0.90846737
0.08334011 0.99143526 0.59703877
0.60031011 0.50131979 0.94827879
0.72096123 0.35984853 0.54930842
0.59491490 0.64869732 0.23892404
0.73408112 0.88821421 0.72797587
0.32191687 0.16534302 0.01521306
0.15399406 0.25552078 0.50308876
0.01266011 0.88077967 0.13692297
0.22874210 0.90534693 0.83050025
0.65611604 0.33046459 0.00891212
0.60886115 0.34754765 0.74599929
0.59685357 0.86833964 0.24882015
0.38085467 0.74626737 0.66291143
0.15273220 0.43276733 0.24150102
0.24792743 0.31533219 0.59800698
0.16945030 0.82914356 0.00808483
0.21788490 0.80390710 0.62112976
0.64398475 0.53200593 0.77049881
0.74522542 0.43827456 0.83478260