Li192 P32 S160 I32
1.0
20.433000 0.000000 0.000000
0.000000 20.433000 0.000000
0.000000 0.000000 20.433000
Li I S P
192 32 160 32
Direct configuration=      1
0.09391307 0.14967431 0.25305980
0.09070944 0.23309059 0.84417227
0.21185574 0.70800352 0.39599611
0.10016200 0.65600747 0.75847582
0.64212441 0.02568925 0.28162263
0.51124512 0.17205574 0.85249083
0.75413034 0.64667907 0.10837982
0.86512849 0.46159305 0.77191901
0.09058004 0.25225942 0.36000016
0.14793986 0.01147330 0.85505879
0.32753968 0.41397361 0.24994816
0.32356078 0.59187979 0.76001253
0.65293321 0.23608318 0.39842389
0.82891518 0.15502973 0.00696618
0.50917826 0.38504438 0.62127398
0.61674110 0.71838349 0.76914685
0.15438562 0.99718355 0.16299604
0.15976044 0.09507620 0.75567599
0.20112251 0.53735313 0.37281966
0.21001965 0.51531382 0.85814960
0.59957897 0.01494399 0.41843384
0.59413863 0.01001767 0.92274957
0.73006312 0.63996125 0.48317573
0.49568893 0.64346472 0.85667834
0.96830563 0.11356004 0.52251833
0.10724699 0.11071024 0.98191907
0.03494073 0.55423387 0.37442639
0.32560831 0.83358004 0.00282258
0.60061411 0.15958588 0.26389205
0.71980324 0.98752027 0.63577402
0.50248412 0.58519567 0.41414550
0.75519092 0.74673446 0.90325803
0.17102963 0.00260273 0.34066916
0.00795051 0.10890946 0.87512188
0.28467644 0.60353594 0.21037397
0.10551824 0.86367088 0.73183839
0.74242551 0.09171776 0.33881837
0.73118967 0.24066882 0.89563164
0.83413191 0.77251466 0.41701986
0.65582344 0.67318150 0.00497881
0.26271502 0.10176427 0.24384906
0.13522936 0.27699618 0.01754188
0.14663245 0.59330283 0.26203759
0.98353905 0.63804629 0.12793994
0.51094492 0.13501030 0.37230386
0.77494296 0.97906691 0.86023568
0.73525127 0.61361909 0.28541162
0.75913901 0.57962317 0.84179655
0.16511138 0.51114815 0.68207211
0.12747948 0.63138534 0.48629987
0.21754256 0.73240024 0.89408595
0.09548966 0.98702630 0.57881093
0.58886120 0.50213454 0.92272203
0.80308099 0.30085151 0.57540277
0.58784187 0.65728115 0.25653269
0.72889804 0.88415546 0.73248385
0.26738326 0.15085772 0.04045193
0.13451240 0.26190355 0.53039579
0.01140711 0.86765644 0.13341395
0.23799097 0.90836292 0.84227420
0.66572138 0.34131684 0.99939478
0.59899731 0.35858792 0.74631719
0.60548968 0.85829070 0.24153163
0.40580242 0.75080586 0.66077502
0.16283120 0.41585315 0.26525261
0.25113212 0.33230277 0.59022389
0.16005322 0.81983739 0.02141967
0.24025906 0.83345305 0.59560997
0.64308165 0.52295816 0.76479917
0.74561169 0.42074677 0.83523434
0.69760422 0.78660205 0.11715297
0.66337280 0.74543891 0.58694765
0.88196124 0.53214385 0.04551263
0.88411186 0.40437492 0.48001652
0.10894040 0.95427832 0.03777517
0.00920176 0.88131501 0.59863681
0.49950710 0.40121697 0.10186826
0.60459064 0.48568315 0.60530978
0.63103354 0.86413622 0.01551651
0.33045206 0.91639116 0.75115778
0.22775008 0.47767943 0.15018216
0.10763920 0.46148399 0.53255521
0.10838763 0.76363232 0.15469664
0.20285246 0.96410608 0.65418635
0.58806785 0.34615053 0.25668374
0.65057660 0.33950241 0.52212119
0.60852914 0.99106444 0.11596421
0.66066208 0.75872529 0.42188847
0.49503432 0.10504494 0.10473668
0.21662464 0.38895436 0.74434573
0.14566962 0.89100629 0.24333637
0.11295426 0.76131373 0.62278396
0.66383274 0.49408092 0.34223473
0.60385701 0.26222003 0.64184681
0.73094215 0.92326853 0.17222526
0.73924192 0.11476059 0.76328664
0.66981586 0.25399809 0.10527086
0.38698682 0.16156321 0.72803786
0.48665600 0.61320190 0.10138617
0.33138783 0.49020630 0.66244708
0.83291455 0.23396666 0.10801004
0.73698814 0.16915447 0.59174928
0.83000242 0.51812740 0.17534253
0.75941771 0.57910538 0.65057461
0.38397770 0.98524633 0.39145686
0.25345038 0.15906026 0.59647000
0.33768663 0.65394898 0.01016442
0.49135882 0.59765764 0.59815190
0.75501236 0.08820851 0.16245501
0.98168531 0.13888145 0.69170200
0.89021022 0.65448851 0.23714617
0.97581805 0.64862509 0.64250482
0.40271586 0.24860827 0.16221491
0.48271251 0.13117206 0.62583513
0.41093576 0.64695112 0.23973586
0.35043637 0.72499473 0.51240659
0.98022961 0.11656730 0.10776364
0.90077298 0.25693544 0.84294780
0.85443796 0.74246153 0.11386466
0.86091569 0.60225214 0.73431890
0.24092663 0.89404122 0.14676724
0.33832322 0.02525510 0.65159733
0.09717270 0.50195126 0.08616082
0.35324613 0.44953758 0.80511134
0.82372796 0.34197183 0.00443815
0.85696587 0.02096383 0.70550844
0.84361214 0.66191451 0.00826870
0.89218282 0.60841899 0.50739426
0.21936857 0.19229184 0.89850143
0.24304080 0.16617328 0.42639428
0.41104065 0.74539286 0.14329666
0.40473602 0.40344431 0.49979451
0.66318737 0.16121060 0.00031158
0.64833966 0.14924049 0.48458735
0.91886817 0.73998708 0.84628458
0.89442015 0.50815621 0.60897456
0.33757821 0.99568246 0.17247813
0.39277867 0.09428441 0.51389958
0.38200147 0.51984402 0.11390258
0.24057283 0.66305082 0.58213582
0.85874794 0.02556108 0.21445098
0.99597855 0.34136241 0.65151350
0.04157747 0.70744080 0.36070115
0.82921128 0.72978616 0.58736147
0.66654674 0.50390137 0.17224262
0.37604564 0.45342336 0.96071808
0.14631327 0.83930507 0.50244680
0.16623160 0.66189527 0.01040483
0.77145316 0.39336191 0.27926924
0.25645912 0.32363324 0.08862073
0.88614306 0.99462659 0.37917049
0.99436529 0.90379015 0.90474331
0.33540018 0.51167727 0.34566182
0.41788661 0.06778783 0.94706207
0.45407098 0.87442271 0.46578448
0.30439194 0.06506641 0.82307951
0.83898843 0.49429968 0.34103766
0.82390809 0.17707860 0.48039894
0.88464567 0.89444845 0.48911887
0.90481066 0.84986717 0.74387438
0.24831609 0.33032151 0.42635542
0.25498330 0.34478242 0.91428582
0.39883577 0.75748164 0.36346232
0.38528525 0.75433293 0.86176315
0.98326931 0.39502227 0.38566436
0.00276819 0.40530360 0.88763092
0.72254807 0.86491962 0.52126951
0.82583972 0.83776955 0.00696569
0.39920834 0.25337596 0.35200090
0.36247038 0.27907237 0.96809072
0.29243896 0.89019583 0.29849472
0.27692184 0.71514564 0.11254069
0.76545353 0.33198796 0.41677863
0.00360664 0.59118285 0.90465522
0.76547173 0.91935033 0.33565618
0.63552216 0.01418188 0.76777236
0.35837882 0.22698641 0.54637506
0.48394540 0.36265245 0.87830483
0.45658196 0.87671247 0.30305104
0.51168798 0.88250920 0.11637218
0.90643567 0.35799877 0.25525018
0.87826960 0.02396140 0.05610786
0.98782642 0.88671793 0.38320579
0.89871466 0.15859679 0.23258967
0.99549839 0.38630838 0.09752195
0.37147163 0.29628339 0.79780756
0.28656378 0.85383720 0.45600493
0.49739546 0.85708408 0.85394970
0.89618266 0.26487936 0.35723161
0.73193484 0.41425452 0.67005849
0.89484247 0.85600746 0.26436118
0.52588080 0.96237766 0.62717480
0.36377703 0.62534422 0.62976247
0.13023660 0.62564270 0.88376557
0.63268030 0.87733169 0.63238110
0.86863255 0.38072884 0.88157163
0.36430098 0.12249922 0.13344035
0.36759702 0.38070311 0.37557785
0.63006088 0.62562517 0.37958840
0.12866294 0.37713314 0.13204183
0.12773132 0.37585146 0.63246362
0.62996610 0.62498154 0.87507074
0.86723272 0.86593743 0.87510172
0.12057491 0.12359173 0.38156930
0.63654881 0.12600546 0.87117576
0.62718982 0.37838008 0.13035697
0.86481519 0.12983166 0.61664778
0.36747197 0.88483170 0.88051291
0.99863760 0.01180409 0.99094602
0.99266419 0.98370623 0.49247754
0.99879649 0.49105077 0.99908834
0.98516829 0.50010537 0.49157514
0.50356814 0.99645466 0.02017261
0.49182446 0.00193657 0.50088672
0.48943620 0.50448069 0.01310319
0.50323064 0.49272869 0.51477818
0.99608595 0.25411931 0.25634047
0.99639629 0.25464268 0.75342949
0.99327577 0.75361377 0.23729428
0.00300214 0.75406169 0.74002592
0.49811949 0.24524994 0.25947546
0.49575972 0.25631956 0.74914416
0.49545552 0.75601849 0.25277502
0.48812140 0.75067239 0.76717765
0.23928207 0.97999601 0.24065628
0.24109689 0.99403827 0.76106278
0.24502845 0.50428546 0.26179806
0.25803355 0.49665653 0.75271169
0.75093046 0.00723846 0.25240834
0.74835371 0.99904635 0.74821239
0.74877232 0.50427494 0.25919095
0.75777088 0.50617882 0.75078892
0.24713569 0.25526388 0.99525290
0.24794075 0.24733023 0.51134857
0.25023243 0.74357471 0.00474326
0.23614148 0.75414537 0.50590667
0.74622764 0.24873242 0.01337071
0.73129021 0.24608209 0.49799152
0.75599816 0.74110501 0.02251209
0.74659532 0.75251233 0.50232652
0.43805235 0.19237118 0.44857367
0.44651538 0.18940001 0.95090137
0.44110802 0.68228468 0.44850473
0.43798669 0.69112519 0.94836487
0.93590239 0.19619518 0.44246026
0.93038362 0.18600105 0.93718498
0.93590405 0.69237983 0.43303305
0.94492248 0.68875497 0.94812593
0.18431728 0.05416168 0.06054182
0.19170104 0.05326661 0.56559455
0.19752303 0.56022970 0.06989354
0.18478738 0.55284211 0.56357727
0.68772091 0.05984187 0.06245347
0.68721132 0.06200600 0.55036835
0.68144185 0.56312610 0.06088362
0.68942738 0.55307272 0.55668590
0.30330811 0.05642878 0.44549298
0.29674003 0.06735112 0.94808311
0.29715996 0.56309198 0.44692426
0.30486474 0.55179561 0.94490134
0.80930283 0.06578142 0.43661056
0.80992449 0.04958637 0.95259376
0.80444191 0.55162553 0.44425869
0.80782997 0.56182802 0.95100781
0.05172144 0.19347363 0.05223804
0.03846291 0.20140669 0.56761067
0.06129685 0.69904958 0.06282108
0.04730928 0.68843816 0.55492951
0.56655751 0.19306232 0.06753470
0.55961279 0.18909217 0.55843495
0.55500605 0.70284108 0.06613588
0.55904439 0.68752320 0.56306235
0.12419225 0.12399135 0.86900621
0.12533012 0.62664911 0.37213476
0.62735370 0.11994765 0.37022107
0.43576053 0.44723822 0.19497201
0.43544875 0.43567493 0.70435467
0.44320108 0.94076378 0.20054826
0.43062891 0.95468187 0.70239690
0.93486769 0.44802702 0.18319906
0.94924003 0.44508937 0.69230089
0.94089223 0.94342978 0.18854277
0.94558262 0.94039194 0.68246427
0.18861001 0.31020039 0.31807711
0.18704668 0.29885562 0.81774321
0.20003908 0.80551964 0.31347086
0.18376685 0.80863082 0.80570446
0.69429198 0.30758635 0.31354651
0.68904141 0.31702128 0.81221374
0.69140272 0.81652440 0.31542142
0.69776052 0.79617404 0.80918669
0.30420999 0.30869854 0.20054711
0.30046442 0.30957156 0.70130496
0.31102944 0.80563664 0.19231050
0.30653759 0.81236284 0.69278761
0.80713306 0.30943814 0.19734355
0.80592699 0.32264582 0.69483369
0.79999861 0.81610879 0.19361219
0.80988322 0.80184749 0.68968671
0.05184653 0.45102025 0.30521705
0.07222145 0.45497865 0.80392655
0.05929051 0.94716954 0.30507194
0.05615891 0.94194446 0.80726232
0.55463689 0.44613533 0.31113648
0.55661192 0.44722861 0.81585343
0.55688686 0.94611170 0.31527006
0.54626650 0.95830058 0.82147048
0.12739155 0.87737858 0.12565052
0.12637049 0.87611630 0.61645797
0.62361511 0.37604208 0.63452966
0.62724626 0.87922925 0.13047942
0.19177901 0.19100983 0.19896482
0.18464831 0.19184942 0.69194342
0.19552608 0.68854931 0.19523955
0.18958008 0.69528329 0.68853525
0.69540465 0.18916276 0.19867616
0.68879833 0.20047023 0.69631483
0.69046115 0.69583183 0.20169813
0.69850845 0.68191162 0.69242675
0.43667231 0.06058855 0.31144753
0.43190580 0.07934296 0.81465475
0.44111851 0.56186674 0.31263283
0.43121855 0.55245537 0.81533782
0.94094022 0.06279193 0.29872370
0.94182164 0.06184956 0.78645237
0.93728582 0.56302012 0.30039260
0.94184174 0.55596821 0.80740711
0.05623323 0.06004461 0.18400458
0.06685141 0.05019488 0.68242334
0.05555842 0.56067391 0.18484422
0.05776306 0.56907311 0.68805770
0.55817969 0.06215918 0.19978048
0.54985389 0.06164119 0.69892456
0.55374025 0.56234811 0.19242024
0.55090024 0.55786789 0.69807892
0.30248411 0.19112795 0.31780775
0.30641324 0.19034488 0.80961192
0.31150906 0.68639112 0.30801344
0.29737724 0.69577643 0.81129239
0.81150890 0.19112731 0.31376852
0.80297267 0.20225513 0.80818562
0.80930057 0.70202386 0.31427327
0.81530032 0.68498929 0.81079781
0.36831769 0.13168149 0.61927041
0.37084260 0.63566563 0.12993735
0.86512605 0.11963111 0.12529745
0.86784441 0.62464409 0.12369224
0.86639467 0.61976269 0.62030375
0.18728615 0.44009410 0.44638430
0.18465267 0.44182444 0.95244563
0.19458876 0.93675021 0.44405790
0.18858861 0.93747424 0.94771283
0.69296250 0.43030953 0.44517460
0.69172412 0.44643983 0.94416563
0.69546200 0.94639376 0.43476092
0.69063626 0.94099569 0.94430275
0.44265031 0.30433538 0.06151300
0.44492428 0.30687787 0.56100367
0.43634464 0.81502272 0.05349969
0.43392391 0.79996819 0.55708099
0.92750073 0.29951400 0.05523599
0.92439897 0.31985678 0.55447547
0.93778607 0.81007501 0.05735974
0.93113835 0.80291943 0.55453818
0.05105208 0.31564422 0.45223036
0.04757607 0.30467843 0.93907488
0.05249056 0.80245192 0.43787479
0.05942718 0.81072520 0.94545640
0.56019767 0.30528852 0.44176188
0.56350770 0.30270686 0.94621825
0.55254288 0.80663467 0.44857346
0.55892017 0.80431420 0.94097566
0.30545368 0.43996352 0.06544291
0.30588274 0.43878148 0.55954057
0.30857737 0.94369617 0.05972704
0.30504539 0.93747429 0.56433151
0.79893587 0.44887916 0.06886542
0.80478004 0.43538855 0.56430456
0.79768008 0.93781047 0.07001064
0.80265814 0.94983599 0.55669261
0.36914380 0.36710955 0.88659372
0.37407576 0.87028610 0.38029638
0.86683397 0.37803680 0.36521328
0.87195126 0.88024162 0.37477078
0.24726589 0.99925970 0.00321637
0.24805707 0.99636463 0.50528137
0.24606410 0.49829933 0.00520923
0.24713452 0.49825675 0.50273799
0.74501383 0.99746861 0.00805769
0.75020418 0.00735813 0.49296763
0.74491208 0.50619448 0.00687754
0.74770414 0.49166259 0.50211276
0.24487795 0.24984004 0.25936094
0.24193647 0.24496293 0.75178060
0.25428866 0.74829560 0.25297612
0.24560339 0.75458413 0.74810300
0.75333352 0.24816005 0.25562658
0.74819801 0.26350540 0.74906993
0.74845315 0.75799062 0.25812586
0.75664912 0.74128037 0.74858549
0.00035053 0.00231955 0.24535650
0.00416643 0.99811372 0.74134909
0.99445391 0.50444679 0.24203528
0.00792039 0.50537160 0.74913178
0.49695796 0.00424460 0.25701937
0.48689861 0.01350899 0.76098053
0.49796224 0.50264673 0.25275906
0.49179146 0.49983318 0.75564326
0.98759621 0.24563447 0.99428655
0.98587986 0.25791727 0.50451859
0.00127045 0.75380754 0.00243273
0.99072754 0.74786226 0.49541658
0.50690228 0.24773838 0.00749072
0.50369811 0.25080614 0.50090474
0.49791934 0.75343701 0.00159024
0.50059213 0.74325798 0.50476774
Direct configuration=      2
0.08237761 0.15112305 0.25537004
0.09026677 0.23384195 0.84568026
0.21329709 0.70826802 0.38901074
0.10050529 0.65400031 0.75718545
0.64000148 0.02836295 0.27550695
0.52856841 0.20533665 0.87282149
0.75384241 0.64783539 0.10625041
0.86434744 0.46552979 0.77231013
0.08928404 0.25719951 0.35894393
0.11305448 0.01150148 0.88431615
0.27919020 0.39588830 0.27850214
0.32317877 0.58915561 0.75982220
0.65020590 0.23617556 0.40093633
0.82650802 0.15574519 0.00871223
0.50985354 0.35835435 0.63979816
0.61655130 0.71523109 0.77145912
0.15646768 0.99806726 0.16268020
0.16081249 0.08335096 0.75991026
0.19914931 0.53856740 0.37268806
0.18154910 0.50841490 0.84520156
0.59977940 0.01350131 0.41167082
0.59378471 0.01299459 0.91885419
0.72722061 0.63993419 0.48319339
0.49493957 0.64007278 0.85423004
0.96901075 0.11352636 0.52216474
0.10881179 0.11833935 0.98503743
0.03244533 0.55818717 0.37791217
0.32531549 0.83230872 0.99974662
0.59920392 0.16234382 0.26352103
0.71921386 0.98404952 0.63569281
0.50598225 0.57912299 0.40521809
0.76434613 0.75186226 0.90033006
0.15899914 0.00268599 0.34209405
0.00372135 0.11798289 0.87295185
0.28338301 0.60450975 0.21081685
0.10942107 0.86485833 0.72944144
0.73985602 0.09138606 0.33883362
0.73516660 0.23919304 0.89454448
0.83191172 0.77183576 0.41536049
0.65516406 0.67688629 0.00279494
0.23987240 0.10417408 0.25253655
0.13567058 0.27550204 0.01803370
0.14312801 0.59783125 0.26176558
0.98468403 0.62688811 0.12096209
0.50825305 0.13336661 0.37120425
0.77690640 0.98050584 0.85927758
0.73594732 0.61552893 0.28375481
0.75840096 0.58261969 0.83792714
0.16876581 0.50921629 0.67898009
0.13983771 0.64763723 0.48583914
0.21991974 0.73382238 0.89345732
0.09462190 0.98559870 0.58151630
0.58709433 0.49717808 0.91747376
0.80615225 0.29476744 0.57590728
0.58967247 0.66190195 0.25362191
0.72529990 0.88321626 0.73339392
0.27196536 0.14408939 0.03469418
0.13382007 0.26080673 0.53018590
0.01373005 0.86644827 0.13917690
0.23059548 0.92028514 0.83301467
0.66421964 0.34089576 0.99918822
0.60456023 0.34938423 0.74010125
0.60244346 0.86058857 0.23813428
0.40607156 0.74398523 0.65714036
0.14585060 0.42553676 0.25732613
0.24968246 0.33143039 0.58929303
0.16777988 0.82492021 0.02237125
0.23822505 0.82548064 0.59435563
0.64206839 0.52228158 0.76374069
0.74420377 0.42120541 0.83379015
0.70044640 0.79228357 0.11263752
0.66338356 0.74497208 0.58828545
0.87815792 0.53254379 0.04476608
0.88168434 0.40456994 0.48178395
0.10903889 0.95499698 0.04007388
0.00878717 0.88006867 0.59824526
0.50655838 0.40807885 0.09641287
0.59975456 0.48849883 0.61229878
0.62490428 0.87156351 0.01180387
0.33353508 0.91154346 0.74559604
0.22774741 0.47636318 0.14779896
0.10669243 0.46377492 0.53231847
0.11029074 0.76518087 0.15592027
0.21042729 0.95871306 0.64291751
0.53425858 0.36727663 0.23891910
0.60446600 0.38648415 0.51209826
0.60721095 0.99462779 0.11420324
0.65923344 0.76142001 0.42008639
0.48972493 0.11454375 0.09151360
0.22050991 0.38561997 0.74428878
0.14501323 0.89193224 0.24367114
0.10834802 0.76022751 0.62487881
0.66686651 0.49824174 0.34187388
0.65150026 0.27078804 0.59259714
0.72943698 0.92580652 0.17097627
0.73913664 0.11544550 0.75727330
0.67559225 0.25797898 0.10914452
0.38736359 0.15686704 0.73199985
0.48777217 0.60910757 0.09802070
0.33082698 0.48268476 0.66823488
0.83476433 0.23667560 0.10818001
0.74167747 0.15933477 0.59220993
0.82964641 0.52004857 0.17550736
0.75903075 0.57968334 0.65205954
0.39395284 0.98176234 0.39266080
0.25330185 0.15514306 0.59890602
0.33824587 0.65110949 0.00854731
0.49169476 0.59501933 0.59646243
0.75459277 0.08974309 0.16233613
0.98003151 0.13339653 0.69667103
0.89202525 0.65712881 0.23463255
0.97763592 0.64259840 0.63771262
0.37346329 0.21836854 0.21218093
0.48365591 0.14162965 0.63224194
0.40656602 0.65621279 0.23948368
0.34611794 0.70957733 0.50306410
0.97996176 0.11923920 0.11038149
0.89898402 0.25787750 0.84320826
0.85296441 0.74310010 0.11158953
0.86634022 0.61059117 0.73359145
0.24719144 0.90010865 0.15279466
0.33781075 0.02420405 0.65984201
0.12066206 0.47510503 0.03494544
0.33975186 0.46625470 0.84261266
0.82277597 0.34462777 0.00410786
0.85623213 0.01659736 0.70624919
0.84165775 0.66096399 0.00605105
0.89055830 0.60745651 0.50657524
0.21859399 0.18888403 0.89650819
0.24545241 0.16202453 0.42953169
0.42951453 0.73665282 0.13071928
0.40474836 0.40700591 0.50255429
0.66097872 0.16585144 0.00192524
0.64682125 0.14590508 0.48495720
0.97968182 0.76421635 0.86459563
0.89209570 0.50675940 0.61076055
0.34886365 0.01211487 0.22134256
0.39366155 0.08981173 0.51779202
0.38442944 0.51646073 0.11669761
0.24179218 0.66028419 0.58631391
0.85763124 0.02697384 0.21384161
0.99621171 0.33926353 0.65278684
0.04125582 0.70875997 0.36069405
0.82776875 0.72941591 0.58679049
0.66795619 0.50550063 0.17132490
0.39798180 0.40433369 0.98916035
0.14625816 0.83608142 0.49976913
0.16726729 0.66219182 0.01210013
0.76551801 0.39306294 0.27879530
0.26059977 0.32160233 0.08376077
0.88390674 0.99411562 0.37692074
0.99094144 0.90733906 0.90939627
0.33595307 0.51276538 0.33715404
0.40699111 0.01302904 0.92188223
0.45074063 0.87502811 0.46909946
0.30386528 0.06425109 0.81659873
0.83832225 0.49415693 0.34115876
0.82215203 0.17472017 0.47655807
0.88374650 0.89341867 0.48842776
0.90075269 0.84130411 0.74459760
0.24803111 0.33218828 0.43101914
0.25648318 0.33711098 0.91209591
0.44176035 0.77174324 0.37570960
0.38698061 0.75267896 0.85590372
0.97956702 0.39459657 0.38964333
0.00033216 0.40563980 0.88911581
0.72194627 0.86377875 0.52238231
0.82712492 0.83959027 0.00699367
0.39677784 0.25425512 0.36168171
0.36266792 0.26780880 0.96383305
0.27007857 0.90487690 0.33525532
0.28341085 0.71713028 0.11204323
0.76061321 0.33125266 0.42079238
0.00103210 0.59393269 0.90532808
0.76281860 0.91960367 0.33473297
0.63449836 0.01687062 0.76732413
0.35759269 0.22451485 0.54974657
0.48284248 0.36084212 0.86634069
0.39794722 0.85853085 0.26765619
0.51072343 0.88663755 0.11042525
0.90231611 0.36042715 0.25870123
0.87786393 0.02552333 0.05628926
0.98492464 0.88432009 0.38178153
0.89618621 0.16035900 0.23322562
0.99434807 0.39290392 0.10245889
0.36893393 0.29931386 0.79359834
0.29401669 0.84505276 0.46209463
0.49986412 0.85471580 0.84868919
0.89264541 0.26543770 0.35917385
0.73131972 0.41541448 0.66680583
0.89335116 0.85663376 0.26346139
0.52867242 0.96706930 0.62520761
0.36346410 0.61864880 0.62899975
0.12759355 0.62909609 0.88431684
0.63062315 0.87664968 0.63121248
0.86789366 0.38149489 0.88053595
0.35934252 0.11565573 0.13323902
0.36877714 0.38280068 0.37662532
0.63039173 0.62947980 0.37719492
0.12866955 0.37505415 0.12678339
0.12749439 0.37616591 0.63246551
0.62798429 0.62185366 0.87493578
0.86872669 0.86453956 0.87537037
0.12202341 0.12706954 0.38078186
0.63913290 0.12855533 0.87072419
0.62847634 0.37972540 0.13403375
0.86770157 0.12504766 0.61799936
0.36654983 0.88392181 0.87608316
0.00051352 0.01447516 0.99038555
0.99273919 0.98292259 0.49352418
0.99652302 0.49449127 0.99898255
0.98266800 0.49958243 0.49393384
0.50400495 0.99812118 0.01585633
0.49416274 0.00042090 0.49759872
0.48775962 0.50584390 0.00724222
0.50734496 0.49244961 0.50899992
0.99364371 0.25667011 0.25747029
0.99571471 0.25086291 0.75501542
0.99437498 0.75750328 0.23868643
0.00584088 0.75288226 0.73489124
0.49180947 0.24323247 0.26490007
0.49300518 0.25535961 0.75131822
0.49722728 0.76019382 0.24869182
0.48818914 0.74809355 0.76362587
0.23520013 0.98320566 0.24866391
0.25074123 0.99414273 0.74549644
0.23791263 0.50508337 0.26079980
0.25608126 0.49463094 0.75650583
0.75024082 0.00809768 0.25177339
0.74698109 0.99868726 0.74761269
0.74929775 0.50569160 0.25883966
0.75621646 0.50527796 0.74981843
0.24656658 0.24957599 0.99387943
0.24760763 0.24509942 0.51168795
0.25131574 0.74232996 0.00405741
0.23259825 0.74615382 0.50400604
0.74708432 0.25058818 0.01331763
0.73064130 0.24050872 0.50272247
0.75771855 0.74224867 0.02047997
0.74436868 0.75229572 0.50126471
0.43678734 0.18804963 0.45128825
0.45115085 0.18573259 0.96108979
0.44346974 0.67322303 0.44685142
0.43672420 0.69177035 0.94438031
0.93569801 0.19652618 0.44298009
0.92850583 0.18982633 0.93969662
0.93452950 0.69208688 0.43262794
0.94348617 0.69212019 0.94873877
0.18468717 0.05270728 0.05699493
0.19158607 0.04893336 0.55750744
0.20087591 0.55597451 0.06302946
0.18525919 0.55375551 0.56218810
0.68810435 0.06248436 0.06117656
0.68579461 0.05844297 0.55113553
0.68082364 0.56473003 0.05885061
0.68715288 0.55354052 0.55776467
0.30718909 0.05241515 0.44230207
0.29703415 0.06027708 0.94258869
0.29868409 0.56072267 0.44501263
0.31272106 0.55084330 0.94015053
0.80719387 0.06340129 0.43632091
0.81151197 0.05114205 0.95229698
0.80219339 0.55285333 0.44429443
0.80689585 0.56083278 0.94861271
0.05009366 0.19667688 0.05484865
0.03823710 0.20175933 0.56838003
0.06118417 0.69980461 0.06515120
0.04737726 0.68775060 0.55300127
0.56822152 0.20437364 0.07243466
0.56036049 0.19288171 0.55932444
0.55062829 0.70386294 0.06480987
0.55568314 0.69001282 0.56801361
0.12082863 0.12372472 0.87077357
0.12474015 0.62850181 0.37277808
0.62514006 0.12062657 0.36962272
0.44608109 0.44509869 0.19538653
0.43684357 0.43301497 0.69889494
0.44257883 0.94241041 0.19431944
0.43447882 0.94968395 0.69849136
0.93091785 0.44964061 0.18686581
0.95017813 0.44382101 0.69485782
0.93976125 0.94486169 0.18670174
0.94470172 0.93468503 0.68571148
0.18749814 0.31878478 0.31747815
0.18653380 0.29608460 0.81621592
0.19760475 0.80554863 0.31106956
0.18697467 0.81071421 0.80406028
0.69369316 0.30536297 0.31596709
0.69128049 0.31526529 0.81146763
0.68943904 0.81789967 0.31232151
0.69624873 0.79475815 0.80935491
0.29889157 0.30987938 0.19963903
0.29800199 0.30359965 0.69788091
0.31434577 0.80588148 0.19129256
0.30813836 0.80783778 0.68916890
0.80689924 0.30782602 0.20021419
0.80649371 0.32366412 0.69303562
0.79939404 0.81895131 0.19127192
0.80549908 0.80184597 0.68757144
0.04534887 0.45228136 0.31021989
0.07204260 0.45385115 0.80648752
0.05600102 0.94574578 0.30436448
0.05543980 0.93653624 0.80955164
0.55715651 0.45507687 0.31284041
0.55752798 0.44262680 0.81005050
0.55883802 0.94787787 0.31199909
0.54728329 0.95712779 0.81976585
0.13050258 0.87905653 0.12672804
0.12707082 0.87401448 0.61346949
0.62284795 0.37807389 0.62930764
0.62617550 0.88229743 0.12715384
0.18037212 0.19568479 0.20129838
0.18269005 0.18393434 0.69438285
0.19760894 0.69113486 0.19186596
0.18854754 0.69501718 0.68824537
0.69569045 0.18834441 0.20053034
0.68865711 0.20363745 0.69159550
0.69075512 0.69815176 0.19808394
0.69592091 0.68088088 0.69164411
0.43320186 0.05675005 0.30793085
0.42924030 0.07213267 0.81440118
0.44030805 0.56738150 0.30592202
0.43135504 0.54879816 0.81338237
0.94071862 0.06394676 0.29799278
0.94016930 0.05612255 0.79040487
0.93415966 0.56684539 0.30219543
0.94347991 0.55776530 0.80661687
0.05674140 0.05989058 0.18413722
0.06513533 0.04608742 0.68589741
0.05486939 0.55665129 0.18660156
0.06036492 0.56642085 0.68802044
0.55356173 0.06467390 0.19641255
0.54823306 0.06280938 0.69908333
0.55790984 0.56722470 0.18982113
0.54924021 0.55870419 0.69809999
0.29883445 0.19436237 0.31328194
0.30558159 0.18842986 0.81032567
0.31064400 0.68804188 0.30772710
0.29684351 0.69420362 0.81033780
0.81186771 0.18853964 0.31578936
0.80456238 0.20048282 0.80409589
0.80931878 0.70481818 0.31116347
0.81557326 0.68673784 0.80867257
0.36894626 0.12979032 0.62189171
0.37258010 0.63337609 0.12874293
0.86517783 0.12133187 0.12537079
0.86787970 0.62534322 0.12162643
0.86656299 0.61934541 0.61955991
0.18681015 0.44019015 0.44664537
0.19274778 0.43921387 0.94745445
0.19790279 0.93136371 0.43698852
0.18416642 0.93407503 0.94510989
0.69161487 0.43302140 0.44306052
0.69075288 0.44544313 0.94369016
0.69383093 0.94381253 0.43503610
0.69104358 0.94407977 0.94220162
0.44299591 0.31298665 0.06096048
0.44207076 0.30718148 0.55912336
0.43593659 0.81731176 0.04770745
0.42392947 0.79227178 0.55154162
0.92782259 0.30500490 0.05625846
0.92448943 0.32002650 0.55548710
0.93854445 0.81211288 0.06064275
0.93002361 0.80217333 0.55470296
0.05063836 0.31621130 0.45320604
0.04801776 0.30637223 0.93979192
0.05071597 0.80287487 0.43761903
0.05635935 0.81066927 0.94558062
0.55441231 0.30417978 0.43779288
0.56183161 0.30437622 0.94178451
0.54438789 0.80210007 0.44498250
0.56051217 0.80242729 0.93718085
0.30872407 0.43834769 0.06465813
0.30485943 0.43820544 0.56040927
0.30631551 0.94003268 0.05514006
0.30520535 0.93217665 0.55931985
0.79700349 0.44983610 0.06866024
0.80240228 0.43589720 0.56389605
0.79693240 0.93960871 0.06915188
0.80211671 0.94774020 0.55646309
0.36942239 0.36183355 0.88825768
0.37365220 0.86903215 0.37933934
0.86363873 0.37792839 0.36857699
0.86971804 0.88022323 0.37406141
0.24577472 0.99504483 0.99956439
0.25008089 0.99203252 0.49962547
0.25544015 0.49811577 0.99968160
0.24742937 0.49821639 0.50244307
0.74507589 0.99974012 0.00680284
0.74871037 0.00466509 0.49301689
0.74344822 0.50653839 0.00539012
0.74565961 0.49322871 0.50256168
0.23774099 0.25386296 0.25732738
0.24034741 0.23995813 0.75086543
0.25556317 0.74990604 0.25190882
0.24640044 0.75355549 0.74675924
0.75266603 0.24705676 0.25936378
0.74957000 0.26287007 0.74631227
0.74773706 0.76025399 0.25527396
0.75477746 0.73988955 0.74804619
0.99896436 0.00268249 0.24439103
0.00248185 0.99329815 0.74399165
0.99119704 0.50700386 0.24483861
0.00882818 0.50513698 0.74981239
0.49759282 0.00195625 0.25396036
0.48614296 0.01066111 0.75892008
0.50180482 0.50872670 0.25050606
0.49098308 0.49606882 0.75244300
0.98676844 0.24935831 0.99611657
0.98565769 0.25806041 0.50522348
0.99971527 0.75363476 0.00630854
0.98945508 0.74736006 0.49505356
0.50614160 0.25361114 0.00955926
0.50172068 0.24988589 0.50103392
0.49678502 0.75421823 0.99695334
0.49616820 0.73770558 0.50466120
Direct configuration=      3
0.07702131 0.15128125 0.24746073
0.09216365 0.23226864 0.84304768
0.22170285 0.69808118 0.39565558
0.10215640 0.65373004 0.75721815
0.63780702 0.01968680 0.28934889
0.50558593 0.17019090 0.85800478
0.75377151 0.65032497 0.10567572
0.86362052 0.45905852 0.77121853
0.08161730 0.25484519 0.35848462
0.10929667 0.01357754 0.89324886
0.27286587 0.39073273 0.27607361
0.32502525 0.59102009 0.75853718
0.60749513 0.23850329 0.36106129
0.82105818 0.16105743 0.01587086
0.51045785 0.35576461 0.63603889
0.61786062 0.71919163 0.77261009
0.15672600 0.99621143 0.16262395
0.16329786 0.08248284 0.76305759
0.19433223 0.53403241 0.37060571
0.20162170 0.51576956 0.85401976
0.61255709 0.03296664 0.44523393
0.59489642 0.01273050 0.91578664
0.72657685 0.64236783 0.48153948
0.49498813 0.63707210 0.85420696
0.97313373 0.11111100 0.52278099
0.14641281 0.14422678 0.98581631
0.01357994 0.59447343 0.38761348
0.32312849 0.82871697 0.99939141
0.60112792 0.14955393 0.25540076
0.70621972 0.99142644 0.63137222
0.50308828 0.58382561 0.40542163
0.76007835 0.75417979 0.90169631
0.15419381 0.99540043 0.34416702
0.00786562 0.11492508 0.88378203
0.27059087 0.59052372 0.18095873
0.10507432 0.86368909 0.73274167
0.74070666 0.09233608 0.33704466
0.72669101 0.23544910 0.89127302
0.83251487 0.77026342 0.41524689
0.65245596 0.68828889 0.00111851
0.22522338 0.09974308 0.26980259
0.14033151 0.28627117 0.01853115
0.14138669 0.59392849 0.26312217
0.98394017 0.62513307 0.12129605
0.50700484 0.12508176 0.36794235
0.82035930 0.00631794 0.83620042
0.73423698 0.61411382 0.28099715
0.75900708 0.58163380 0.84478898
0.16620144 0.50891000 0.68131877
0.13935644 0.64616789 0.48715704
0.21597453 0.73469520 0.89478529
0.09398798 0.98717823 0.58902641
0.60889296 0.52427186 0.97134802
0.71991321 0.36087892 0.54416386
0.58727571 0.66330510 0.25377765
0.72774348 0.88991376 0.73290905
0.32584721 0.14993163 0.00413787
0.13510562 0.26274478 0.53083187
0.01361019 0.86353641 0.13642470
0.22909750 0.92490325 0.83193312
0.65634576 0.33423325 0.99572108
0.60529611 0.35007335 0.73661731
0.59876630 0.85743615 0.23866272
0.41123207 0.75188445 0.65493251
0.13981256 0.42652651 0.25378486
0.24822326 0.33634916 0.58365286
0.16286096 0.82197389 0.02111905
0.22900110 0.80853145 0.60436411
0.64071635 0.52306943 0.76995654
0.74485926 0.42215596 0.83759571