Li192 P32 S160 I32
1.0
20.433000 0.000000 0.000000
0.000000 20.433000 0.000000
0.000000 0.000000 20.433000
Li I S P
192 32 160 32
Direct configuration=      1
0.98460081 0.88894627 0.96390197
0.99679145 0.07310638 0.42137389
0.00658029 0.48715559 0.11917656
0.01662124 0.47009521 0.61174119
0.58469213 0.99020237 0.91170486
0.59491929 0.91994503 0.50137267
0.49346159 0.57269437 0.08851707
0.57023978 0.57851144 0.50285485
0.27711846 0.63608037 0.21568065
0.24261986 0.40966239 0.64767424
0.23811380 0.93200189 0.15797851
0.37123282 0.01381850 0.75106371
0.83466141 0.50554941 0.33447549
0.80904414 0.59790316 0.74155573
0.83138619 0.98997833 0.34250933
0.78449955 0.98107479 0.87101340
0.09636061 0.25897110 0.29883815
0.06752250 0.14890111 0.73837010
0.07058453 0.66413573 0.24171279
0.09961805 0.74317395 0.66315609
0.53282660 0.13871361 0.26393899
0.60096119 0.28344380 0.69648435
0.47155344 0.70908567 0.15282238
0.48342004 0.79600373 0.84048873
0.34448505 0.48971150 0.18526598
0.24071406 0.60437903 0.80441120
0.24729187 0.08060074 0.33780579
0.24950140 0.10470086 0.75309628
0.76546922 0.38278725 0.25576246
0.79739568 0.47423906 0.85907497
0.72855206 0.01505611 0.14447709
0.72440121 0.99450436 0.66233985
0.88188966 0.24451703 0.21958563
0.99008704 0.35237444 0.76853436
0.01922321 0.71775610 0.35953277
0.90742790 0.74249656 0.82311382
0.43528634 0.35227948 0.26428031
0.46257380 0.14240228 0.71838236
0.49887928 0.76898437 0.36070347
0.47947364 0.64951632 0.66577224
0.98657648 0.40765193 0.43119093
0.02337412 0.38753857 0.98597198
0.01407387 0.09969300 0.59947873
0.03073376 0.98723175 0.11400280
0.39382745 0.42764107 0.49086618
0.51775756 0.41907555 0.07091397
0.43868619 0.91041567 0.49528278
0.58522571 0.99721841 0.08956481
0.02234980 0.27653894 0.14883633
0.11838504 0.28204291 0.71473732
0.91545478 0.67469244 0.26358379
0.06473830 0.73630357 0.82576437
0.44469028 0.24302912 0.14684657
0.57056509 0.25902149 0.83391975
0.51661262 0.64364807 0.26452170
0.50934654 0.64813851 0.81280855
0.35640306 0.24749042 0.43065812
0.25522837 0.26026675 0.90341192
0.17778927 0.83804003 0.49847071
0.25768243 0.63284197 0.99357539
0.75326537 0.17683877 0.59166529
0.76192067 0.19874358 0.10937321
0.76194678 0.65263890 0.57546601
0.75286091 0.67370256 0.91088703
0.94949565 0.27244016 0.34766372
0.90477923 0.22537072 0.76777321
0.91564691 0.83846857 0.28107121
0.90941431 0.75418634 0.64515166
0.53422006 0.26015482 0.35250914
0.45495036 0.35289640 0.78338011
0.50918674 0.85781065 0.20936048
0.46329364 0.84791360 0.69678470
0.42289395 0.09020347 0.47868465
0.48454284 0.89020380 0.01814885
0.59520710 0.42411631 0.50987218
0.61118051 0.52761531 0.97458811
0.11733289 0.00094287 0.51628967
0.89261466 0.01513638 0.04435626
0.11337486 0.49544025 0.52639815
0.10314811 0.53729360 0.94041706
0.40429999 0.02887403 0.06630399
0.50889841 0.00830750 0.60943390
0.50312540 0.40577395 0.91845920
0.50749523 0.50954181 0.37418786
0.99176437 0.11639058 0.03585410
0.98507828 0.89477347 0.45335394
0.95254838 0.49447927 0.89777707
0.01146416 0.56708272 0.40393283
0.44628970 0.99292882 0.90708828
0.56597846 0.11381372 0.50431256
0.47551914 0.57643163 0.93632403
0.43111639 0.58123411 0.50801275
0.97504555 0.04833378 0.90695018
0.89120026 0.01540150 0.55040356
0.93832390 0.59847794 0.00172640
0.98409802 0.61555897 0.54346832
0.25059290 0.91572459 0.33343442
0.13767973 0.00251081 0.78030512
0.32498950 0.49301236 0.34109667
0.13290126 0.49137166 0.76969049
0.72552609 0.11403833 0.26896131
0.82776549 0.91407915 0.74239147
0.84014695 0.50145690 0.18248339
0.72257084 0.49476728 0.64271252
0.21769726 0.09799645 0.18218060
0.26047886 0.94610247 0.64229483
0.21283610 0.48622796 0.13948963
0.34598490 0.54669567 0.73200540
0.74119524 0.88601790 0.22981880
0.67876740 0.09238941 0.76267555
0.67817065 0.45675674 0.32520315
0.65582569 0.57308955 0.75401181
0.34319278 0.29398791 0.00646807
0.16798146 0.26805284 0.43269051
0.23272030 0.86958046 0.99360391
0.33585059 0.78608771 0.46046898
0.76447151 0.26702329 0.88820255
0.75925470 0.34674101 0.54239827
0.86816712 0.75649647 0.99823419
0.73593093 0.66178810 0.42683449
0.15826519 0.16895495 0.00045282
0.17133278 0.24219686 0.57579208
0.31989297 0.77057288 0.07920060
0.14838515 0.67113401 0.51384961
0.73001520 0.35914182 0.02503053
0.87109106 0.23287483 0.51636776
0.62880406 0.74466702 0.00485883
0.73577521 0.80745493 0.59475054
0.59311673 0.27362344 0.21112353
0.42227410 0.27782166 0.67523235
0.37684556 0.80044762 0.25208630
0.60705909 0.75670867 0.72363364
0.00833435 0.37284286 0.25512960
0.05368219 0.24200703 0.84597303
0.07707712 0.83518995 0.21437707
0.00017108 0.63223879 0.77164799
0.10395597 0.00892872 0.97710814
0.01775952 0.92271999 0.60219051
0.88858000 0.45717143 0.02304440
0.89388622 0.51935850 0.50549711
0.52896637 0.10316320 0.98961502
0.50140915 0.98994607 0.37772138
0.37782303 0.46752732 0.96656085
0.48841823 0.47850273 0.59758219
0.13585874 0.98094341 0.30471096
0.25131822 0.88432385 0.81067741
0.14632476 0.52560976 0.28460835
0.22431620 0.58342002 0.66230060
0.67126438 0.99812132 0.34206556
0.83186746 0.09536114 0.74089844
0.68648914 0.49757796 0.16563665
0.67237492 0.40693641 0.75097690
0.98851115 0.13709193 0.26058796
0.00034760 0.24864355 0.62803720
0.99188784 0.73414304 0.13991043
0.97553828 0.85557157 0.76158202
0.38835045 0.17710831 0.27076774
0.43451195 0.20474415 0.83977882
0.61341733 0.77030824 0.26426795
0.38709715 0.75012693 0.71716574
0.22134179 0.28894400 0.13412197
0.24522456 0.36580847 0.46963813
0.15540429 0.76181085 0.07525265
0.31409065 0.65563142 0.48698513
0.63368436 0.25563138 0.02472264
0.64564462 0.25343963 0.51582204
0.75607189 0.83218938 0.08883559
0.75961392 0.81554405 0.42477824
0.21409984 0.40412008 0.24356521
0.25871927 0.41851032 0.83593910
0.35593487 0.00977194 0.25707475
0.30659459 0.98343048 0.86161526
0.72410216 0.60232803 0.28589683
0.82904783 0.41323873 0.71852225
0.86399355 0.03397702 0.21217248
0.67232599 0.92402275 0.76567136
0.30921932 0.16367799 0.01424410
0.32921545 0.25636047 0.57860416
0.33837496 0.74533056 0.92074974
0.20254347 0.75573944 0.39804249
0.86500655 0.27145066 0.96868707
0.73971227 0.12944741 0.46307307
0.73576091 0.67057169 0.09889125
0.85777052 0.75758549 0.47926407
0.22203773 0.12850771 0.47783240
0.19521084 0.35108932 0.99028502
0.24591966 0.78291267 0.61516964
0.16949941 0.74546988 0.91180276
0.76891547 0.27376555 0.37604394
0.72445370 0.13646134 0.97693746
0.63225602 0.74998002 0.52346012
0.74770849 0.81956635 0.93211078
0.11579613 0.13694978 0.37396158
0.13802438 0.13814038 0.85973798
0.12634006 0.62680758 0.36364819
0.12661346 0.62840468 0.86427717
0.63572287 0.13835318 0.37265947
0.61588915 0.13578481 0.89228924
0.60583948 0.61054155 0.37669545
0.63638718 0.62161919 0.87590408
0.35699078 0.38156634 0.37932831
0.38162965 0.37605773 0.88065220
0.38703786 0.86527702 0.36493086
0.35829489 0.87272335 0.88406939
0.86137239 0.37241976 0.38137173
0.87412110 0.36642954 0.87845045
0.86708088 0.87688587 0.39265349
0.88198202 0.87481861 0.87686010
0.37288845 0.11349226 0.14652981
0.38023260 0.12541397 0.62741598
0.36363885 0.63312071 0.10024540
0.37087273 0.61516296 0.62644406
0.88514262 0.14487070 0.12346549
0.87870955 0.12910519 0.61795125
0.89323584 0.63342972 0.12609520
0.87327794 0.61621119 0.60348869
0.11480510 0.37979570 0.15197259
0.11512793 0.38232117 0.63084275
0.12277311 0.89426061 0.10885518
0.14388714 0.88478362 0.61938395
0.63418155 0.37268496 0.13072075
0.63815597 0.37794446 0.61432919
0.63027475 0.87185952 0.13243801
0.62070340 0.86749761 0.64225678
0.05472258 0.45526762 0.32334223
0.03360303 0.44152563 0.82739177
0.04929490 0.91441846 0.31145673
0.03855734 0.95110594 0.82217826
0.55432072 0.43564627 0.29562897
0.56116568 0.42872761 0.81117209
0.55982823 0.93995718 0.29424806
0.55879433 0.92892877 0.81646095
0.45879534 0.06247477 0.31110504
0.45784001 0.05861303 0.81813010
0.43008799 0.55275986 0.28561946
0.43313703 0.54109931 0.81924816
0.93463440 0.03923473 0.31678068
0.94122912 0.07913727 0.79618533
0.94394017 0.57010507 0.30671550
0.92088343 0.55329153 0.80560113
0.44161952 0.42359558 0.17656819
0.44015235 0.44191233 0.69727475
0.45630133 0.96143437 0.16786173
0.45364523 0.95899812 0.69297563
0.94510972 0.44631971 0.20647881
0.93998841 0.43688270 0.68424997
0.93264677 0.93100149 0.18975070
0.92919501 0.94191581 0.69715303
0.05666418 0.04186011 0.21040041
0.06548873 0.03998961 0.68549651
0.06542159 0.55745384 0.19108537
0.04850666 0.54762613 0.70016531
0.56677621 0.06994348 0.19041147
0.57618894 0.05498307 0.69889505
0.56396568 0.54437029 0.17982016
0.55429225 0.55803211 0.69649716
0.30320176 0.05440053 0.42889777
0.32553813 0.06732129 0.94342955
0.30908575 0.55661016 0.44446132
0.29627322 0.55105131 0.92408336
0.80942844 0.04189379 0.45006810
0.80456234 0.05956641 0.96449997
0.79958265 0.56039664 0.43760673
0.82670113 0.55281940 0.94417246
0.28210062 0.42875002 0.04842743
0.30576477 0.44126958 0.55588000
0.30285338 0.94564048 0.05630784
0.31638268 0.92480593 0.53989256
0.80303850 0.44265473 0.08066324
0.80293596 0.45004822 0.56185463
0.80179233 0.94333344 0.07586613
0.79110421 0.93429105 0.58162537
0.18007769 0.46031933 0.44656594
0.18228780 0.44367004 0.91424751
0.19485676 0.92880969 0.44149592
0.20755247 0.96183289 0.92505100
0.69167658 0.42555189 0.44768497
0.70914184 0.44375703 0.95011437
0.69221901 0.93256522 0.45059304
0.69834316 0.92920680 0.94812188
0.18796091 0.05884806 0.04783188
0.21292884 0.04158469 0.56633178
0.17496883 0.55337361 0.03441688
0.18785559 0.57069835 0.56160676
0.67543590 0.05430045 0.05194690
0.69113122 0.05631193 0.55840766
0.69455052 0.56518278 0.05279397
0.68469586 0.56029566 0.55438988
0.44027450 0.32172461 0.06842658
0.41839471 0.31883052 0.55987706
0.43403922 0.78763261 0.06623781
0.42654290 0.81722611 0.56611720
0.95957584 0.30771215 0.05530804
0.96430000 0.31342339 0.55038518
0.95827737 0.81069358 0.04988580
0.95827716 0.81666026 0.54563300
0.06819164 0.31376183 0.42653718
0.08770261 0.30494345 0.93631532
0.08386348 0.79072524 0.43642097
0.05878931 0.80568275 0.91727040
0.55345136 0.32783616 0.45622662
0.55462835 0.30275819 0.95038158
0.55454831 0.80485315 0.46277455
0.54185952 0.80541653 0.94690344
0.45637202 0.19310555 0.44941786
0.42839624 0.19229056 0.96946516
0.43138003 0.69433360 0.45629594
0.43208974 0.68119518 0.93159765
0.94879415 0.18420580 0.43974844
0.96430643 0.19423709 0.92693097
0.95851811 0.68433304 0.44845121
0.95026671 0.69722129 0.93088170
0.07497987 0.20319197 0.06545979
0.07124878 0.19853472 0.54053980
0.07483586 0.68735098 0.03984164
0.06047094 0.69110010 0.57681919
0.54422943 0.19413014 0.07556451
0.55243689 0.20987608 0.58040103
0.54787703 0.67163538 0.04902962
0.54578937 0.68645719 0.56908939
0.30295671 0.31967641 0.21000991
0.31052628 0.31366749 0.68808606
0.29723283 0.82412526 0.18032526
0.30174170 0.81933669 0.69786178
0.79749950 0.30618976 0.17197052
0.81170595 0.29617379 0.68715606
0.81356537 0.79890131 0.20964066
0.81184715 0.81048294 0.69331565
0.30264383 0.20348238 0.33668434
0.31402303 0.19257759 0.79751735
0.27505467 0.71148745 0.30749337
0.31058119 0.70682023 0.81342257
0.80029837 0.20397202 0.29162903
0.79896484 0.18900772 0.80905970
0.80667145 0.68291225 0.32993960
0.80633933 0.69367191 0.81300215
0.18921786 0.20303884 0.21279825
0.20332995 0.19825301 0.68841418
0.18135197 0.70701350 0.18192130
0.20035226 0.69331846 0.68676017
0.67575798 0.18771089 0.18966904
0.68284334 0.19179231 0.69075558
0.68907096 0.68405787 0.21258774
0.69374307 0.68967675 0.69688098
0.19208720 0.31748873 0.32443174
0.19727441 0.31614925 0.80864816
0.17477489 0.83433459 0.29615295
0.16710285 0.80176234 0.79984307
0.67992207 0.31002811 0.29543417
0.69268449 0.30389112 0.80195304
0.69921707 0.80504605 0.31949386
0.69191832 0.80566013 0.81746877
0.00040694 0.00442889 0.00398422
0.00198107 0.00555617 0.51137468
0.99574515 0.49845635 0.00179018
0.00331584 0.50414011 0.49922030
0.50960970 0.99376688 0.99507032
0.50634753 0.00901906 0.49580695
0.49244709 0.48587043 0.99851784
0.50072263 0.49114929 0.49026826
0.98858701 0.26379995 0.24883981
0.01376324 0.24828417 0.73445567
0.99795513 0.75489990 0.25532797
0.99142892 0.74008247 0.74439807
0.47665943 0.24919952 0.25223139
0.49864624 0.24646680 0.75790562
0.49511472 0.75759408 0.24959414
0.49393078 0.74279959 0.74393667
0.23943696 0.99703337 0.25494519
0.25899089 0.99391585 0.76155984
0.25016406 0.51461533 0.23840906
0.24252861 0.49763755 0.74479776
0.74942150 0.01124344 0.24988996
0.76092211 0.00493711 0.76275225
0.75557908 0.49112151 0.25405120
0.74925118 0.49441272 0.74634940
0.24719585 0.25805205 0.01718988
0.25967361 0.24944429 0.49366404
0.24919157 0.75660309 0.98789851
0.24387302 0.73905545 0.50629012
0.75479267 0.24300066 0.00032476
0.76167004 0.23755389 0.50199652
0.75366851 0.74426291 0.01159710
0.74338604 0.74342042 0.50602186
0.99790030 0.97966000 0.25635050
0.99180030 0.00332518 0.74904809
0.00705931 0.51194132 0.25424138
0.98785002 0.49518727 0.75516444
0.50960846 0.00368106 0.23728667
0.51692937 0.00005300 0.75709433
0.49845696 0.48798648 0.23130702
0.50548380 0.49073484 0.76238564
0.25860729 0.00758713 0.99658372
0.26004012 0.98956441 0.49211208
0.23633570 0.48990555 0.98259517
0.24370026 0.50579774 0.50154302
0.74524756 0.99278165 0.00950210
0.74556469 0.99152161 0.50976228
0.76584394 0.50196453 0.00747348
0.74467618 0.49723792 0.49610165
0.01998912 0.25168746 0.99112021
0.00843840 0.25444745 0.48528551
0.01589732 0.74771037 0.99005290
0.02041104 0.74771397 0.50095574
0.49217530 0.25476898 0.01410883
0.49568714 0.26559587 0.51232505
0.48683788 0.73808530 0.99515979
0.48639155 0.75226684 0.51607382
0.25454194 0.25785355 0.27071939
0.25743655 0.25934075 0.75076550
0.23137008 0.76994421 0.24455084
0.24382794 0.75165606 0.75143856
0.73722617 0.25288615 0.23675262
0.74640531 0.24417740 0.74543827
0.75462401 0.74406392 0.26043067
0.75002796 0.75061303 0.75453160
Direct configuration=      2
0.01855425 0.88373585 0.00576199
0.98295774 0.08286315 0.43250067
0.04792955 0.47941521 0.10484608
0.97940368 0.45512299 0.60501715
0.57060675 0.00099629 0.91568026
0.58774660 0.91492707 0.51121354
0.50057785 0.58558632 0.08749931
0.56913966 0.58387967 0.49249951
0.22399321 0.62567926 0.23354677
0.27118245 0.42319823 0.66187559
0.24060439 0.93783817 0.16607295
0.36170336 0.99196866 0.73986987
0.85138352 0.50687656 0.31261381
0.83419564 0.57115574 0.72847879
0.82750398 0.99700271 0.36598927
0.75800847 0.00764061 0.85972189
0.10104197 0.23991033 0.31063993
0.08671409 0.15960906 0.73284439
0.07485678 0.67977545 0.24133800
0.08422910 0.76523641 0.67809553
0.56715893 0.15160439 0.25345091
0.59271605 0.25244774 0.67056243
0.47717430 0.71964863 0.13015620
0.45306009 0.80426247 0.84084535
0.36542193 0.53345047 0.21560748
0.24737059 0.56693194 0.84798599
0.25161259 0.08118360 0.35284660
0.26862661 0.10810610 0.69915867
0.78225106 0.39523536 0.25329200
0.76455078 0.48057788 0.85229782
0.72142302 0.04007516 0.15966473
0.70359322 0.99728050 0.64718360
0.89217373 0.24904099 0.22859422
0.93858610 0.33531075 0.75918811
0.01538042 0.74665817 0.36381801
0.91976860 0.75766035 0.83165819
0.45036750 0.35146224 0.26302349
0.48575827 0.13137456 0.76793937
0.49792122 0.75030450 0.35592862
0.52153036 0.66204411 0.67749812
0.98497165 0.38934794 0.44816248
0.00162632 0.38405301 0.98554043
0.01062391 0.11164328 0.58644510
0.02404779 0.98287703 0.10937440
0.42617636 0.40544022 0.48605975
0.49498799 0.40833092 0.07058233
0.44514653 0.90091299 0.50717019
0.56473162 0.98992372 0.09519411
0.00517191 0.26239141 0.13207587
0.11293906 0.31232825 0.74749871
0.90297615 0.69439189 0.25483266
0.08040862 0.75133809 0.82539692
0.46880582 0.25304933 0.15283270
0.58161243 0.24598797 0.83024838
0.54212948 0.63825205 0.26605106
0.51630533 0.65948683 0.83002373
0.31774468 0.24196624 0.41841069
0.22697708 0.22127118 0.88692366
0.18793892 0.85947496 0.47954961
0.25684950 0.63674317 0.00374031
0.74066618 0.15753152 0.58591006
0.78969785 0.22486557 0.10075009
0.75241927 0.66286624 0.58758249
0.75660047 0.64885086 0.92788254
0.94051977 0.26487439 0.34794309
0.92029489 0.18990151 0.73667418
0.91405043 0.83090748 0.23844259
0.92215940 0.74723987 0.64740358
0.54381042 0.22804266 0.37263589
0.47386859 0.35709234 0.78172748
0.51712643 0.85431725 0.23120626
0.51003943 0.82811618 0.67227676
0.40035348 0.02615052 0.53727469
0.49789624 0.88238451 0.99354747
0.58247060 0.42580148 0.49309627
0.60830938 0.52892939 0.99609849
0.10694805 0.02447756 0.47946288
0.88032894 0.00289889 0.03362381
0.10793295 0.48545699 0.51746468
0.09145469 0.53786253 0.95025188
0.41265742 0.98725475 0.08912715
0.52841490 0.02835204 0.61862243
0.51154288 0.41565929 0.92520108
0.50982177 0.50650047 0.38447748
0.98598718 0.11567706 0.03114885
0.98695337 0.89683418 0.44884061
0.96971365 0.49319573 0.88839843
0.99793403 0.55305515 0.40476445
0.41675097 0.98707316 0.92174876
0.52093557 0.10233454 0.45100213
0.49004286 0.58705170 0.94328822
0.43681532 0.59945404 0.50599791
0.95496813 0.99458612 0.89209572
0.89770548 0.00498492 0.55573030
0.96346147 0.61104903 0.02047047
0.98589553 0.60463772 0.55484507
0.25056566 0.91775587 0.32737407
0.13360426 0.02266754 0.77430476
0.32341359 0.51655541 0.32915641
0.14212506 0.47114976 0.74485770
0.73453568 0.12600536 0.27190030
0.82515969 0.91284674 0.73342920
0.82433665 0.51777724 0.15780842
0.69947130 0.48708759 0.63536421
0.23235670 0.09861914 0.17200760
0.23711756 0.95835300 0.64853253
0.20714531 0.47951520 0.12698326
0.36524660 0.46892152 0.75715030
0.71685380 0.90691876 0.24203757
0.68165441 0.10531095 0.78837545
0.68037420 0.49205351 0.32833822
0.67710659 0.58819991 0.74630601
0.32987822 0.30739301 0.98380925
0.16200208 0.27432864 0.43773213
0.24839221 0.85860863 0.98433620
0.35013402 0.81745185 0.48213683
0.76244661 0.28036225 0.88656647
0.76260017 0.32029078 0.58198135
0.86012016 0.76928328 0.98345958
0.76483046 0.66532619 0.42295666
0.16408364 0.16409457 0.00335600
0.16881781 0.26962727 0.59690782
0.31590382 0.74952812 0.09580208
0.16038507 0.68058138 0.51651527
0.73096130 0.34897891 0.05013944
0.86093007 0.22956454 0.50274162
0.63208555 0.76946946 0.00552594
0.73746234 0.80930072 0.59413133
0.60246313 0.29971098 0.23458824
0.45834024 0.23723959 0.65605168
0.37770605 0.77095775 0.24772991
0.60670406 0.74387021 0.77209265
0.01791022 0.38002834 0.23955547
0.02788161 0.24389918 0.86464183
0.05641689 0.84840771 0.24265864
0.00722761 0.64746447 0.74937613
0.11981291 0.02101615 0.01047586
0.02365288 0.93360760 0.59575135
0.88401367 0.44300805 0.99188513
0.87867900 0.52522836 0.51219521
0.49396109 0.10411193 0.01000683
0.47699100 0.96702668 0.38320921
0.38352788 0.48667673 0.02736055
0.52865299 0.49240118 0.61353466
0.14510829 0.00806721 0.29271900
0.26054518 0.88987807 0.78513798
0.15022268 0.52393727 0.27647035
0.23328230 0.59348812 0.68075977
0.66538075 0.00256871 0.33524279
0.83459439 0.06157334 0.73022751
0.67838880 0.49982866 0.16440441
0.67527652 0.42047997 0.74583499
0.99472471 0.13547268 0.24137388
0.00620666 0.30531736 0.63826067
0.98615839 0.72840099 0.12917865
0.01103979 0.86577513 0.76442847
0.40437898 0.20536103 0.27977210
0.41160280 0.24673617 0.85449381
0.60854856 0.75839558 0.20536763
0.38465341 0.71920581 0.75516605
0.23165932 0.25101382 0.12676934
0.26260294 0.36634669 0.47306204
0.14002632 0.75977405 0.07030242
0.30840590 0.65689626 0.51583490
0.63829847 0.25818952 0.05385580
0.62994991 0.25409780 0.51598586
0.76329243 0.83322074 0.08060150
0.73680492 0.84235775 0.44123393
0.26202966 0.39318470 0.26736442
0.24922595 0.41853604 0.84036969
0.36872183 0.01362620 0.23590032
0.26869110 0.08230168 0.84502269
0.73233078 0.61307065 0.28222772
0.81062518 0.41608408 0.69596437
0.85531233 0.01738735 0.21845138
0.64893771 0.90929753 0.76410389
0.31698193 0.14024195 0.02554335
0.32735481 0.26005054 0.57288998
0.32137683 0.73979340 0.92309463
0.22440871 0.72004112 0.38970063
0.85951144 0.19195199 0.97580486
0.72746371 0.13816091 0.45292601
0.78482483 0.67251691 0.08224811
0.85912599 0.78158482 0.49102411
0.26539606 0.13594984 0.50565328
0.19262583 0.33157872 0.01877394
0.24733431 0.76214508 0.61882061
0.16514722 0.72428244 0.92517762
0.75489707 0.28013595 0.39643588
0.71259515 0.14359532 0.97659287
0.63550959 0.73453621 0.49931786
0.75590579 0.84378548 0.91202890
0.12743361 0.12110284 0.38484034
0.13106423 0.13291359 0.86767752
0.12515212 0.63019538 0.35780245
0.11208653 0.61711579 0.85225387
0.63271488 0.12871196 0.37243797
0.60722360 0.13860166 0.90069541
0.61240642 0.61097127 0.37849455
0.62132696 0.61281779 0.87744629
0.36286442 0.38886826 0.36492540
0.37718230 0.37830482 0.88315698
0.39737853 0.87688866 0.36421440
0.36060490 0.87081456 0.87765397
0.85857922 0.36661445 0.37075432
0.88096299 0.38354789 0.85481700
0.86172471 0.87839533 0.39350786
0.88365909 0.88189886 0.88185750
0.36799980 0.12905031 0.15690615
0.38071036 0.12474852 0.63202247
0.36694089 0.61504124 0.10727354
0.37233604 0.61536761 0.63622639
0.88373792 0.11755180 0.12250735
0.88042469 0.13221364 0.63252635
0.89426605 0.62532685 0.13288686
0.86522404 0.61880706 0.61269916
0.12507304 0.36975855 0.13439774
0.11773737 0.38530944 0.63214621
0.12948864 0.89546847 0.10853312
0.14161435 0.87240680 0.62073311
0.62241593 0.37433607 0.12451350
0.62756245 0.37318662 0.61993707
0.63074258 0.85982386 0.13236381
0.62668125 0.86660458 0.64249695
0.05040919 0.47028222 0.32256161
0.04457684 0.44147979 0.81332665
0.04020927 0.94411857 0.33035849
0.04830029 0.96179481 0.82172146
0.55579610 0.43469860 0.29763036
0.57387801 0.42104948 0.80685467
0.57361723 0.93913809 0.29466024
0.54754157 0.93747767 0.82319087
0.46575989 0.06110498 0.30111033
0.42802693 0.05161637 0.81021330
0.45036716 0.56584439 0.29470737
0.45586637 0.54870145 0.81397494
0.93782955 0.06670376 0.30371781
0.93120373 0.07104368 0.80839411
0.94406035 0.59391448 0.31001236
0.93761884 0.56899404 0.80783907
0.43279996 0.43449378 0.18669475
0.45251536 0.43918257 0.69145210
0.45374304 0.94644613 0.19173516
0.45993013 0.94367390 0.68938274
0.94071774 0.46626707 0.20686120
0.92375772 0.43872889 0.70272812
0.94533840 0.94096958 0.19616666
0.94487963 0.94614716 0.69795531
0.06880006 0.04685685 0.20173477
0.07385324 0.05943174 0.69254791
0.05972572 0.57344039 0.19858603
0.04769787 0.55191882 0.69226780
0.59201756 0.04810420 0.18538106
0.57080920 0.05992431 0.71690264
0.56397566 0.55501132 0.17886813
0.57104338 0.54785774 0.69062599
0.33143454 0.06107683 0.43819865
0.32966697 0.06253140 0.95001950
0.31708420 0.56849490 0.44261556
0.30607800 0.54912821 0.94548510
0.81395032 0.05621165 0.46977676
0.80249292 0.05984006 0.94877320
0.80298932 0.55194056 0.43519961
0.81882331 0.54849777 0.94872102
0.28105483 0.43262013 0.05484034
0.31784489 0.43823012 0.54829879
0.31570964 0.93279016 0.04441600
0.31301245 0.93801529 0.54308924
0.80261444 0.43414850 0.07036107
0.79782965 0.43827134 0.55057657
0.78655906 0.95023275 0.07427646
0.79018473 0.93459838 0.56508064
0.20606042 0.45245593 0.42809883
0.16897036 0.43555440 0.93007631
0.19386280 0.96320013 0.42592144
0.19601629 0.96058036 0.93737332
0.68291341 0.43663500 0.42998578
0.68731309 0.44765125 0.94007902
0.67997765 0.94667612 0.43755450
0.68974644 0.95474808 0.93388357
0.20777813 0.06834875 0.05446154
0.20703097 0.05736231 0.55853051
0.17539710 0.55435890 0.04328501
0.20149365 0.55509558 0.55026758
0.67269576 0.06718570 0.05669686
0.67506441 0.05307701 0.55018070
0.70110576 0.56312291 0.05390583
0.67740877 0.55735445 0.54665952
0.43304111 0.30952745 0.05186006
0.43339208 0.30603065 0.56800303
0.42153914 0.79979317 0.03854187
0.44432335 0.80362358 0.57119870
0.94534787 0.30573272 0.04540975
0.94520372 0.31204984 0.53753006
0.94470311 0.80433649 0.05017574
0.95144045 0.82302327 0.55863506
0.05351958 0.30410012 0.41601695
0.08244330 0.30491271 0.95973323
0.07362507 0.80040787 0.45552011
0.06131470 0.79381851 0.93846953
0.55275045 0.30826397 0.44456463
0.57664364 0.29684456 0.95943826
0.55971843 0.80309496 0.45440531
0.54329184 0.80373481 0.92504372
0.43610582 0.18765044 0.44793143
0.44836125 0.18673828 0.95088781
0.42320212 0.70991362 0.44036469
0.43330206 0.69626971 0.92190052
0.94426587 0.18443782 0.44220184
0.97455514 0.17634787 0.93956511
0.95590854 0.70093764 0.46370681
0.92699766 0.68667575 0.93241311
0.06263239 0.18526568 0.06879553
0.07069479 0.20825348 0.55035803
0.04948706 0.67102400 0.04775789
0.06071827 0.70271630 0.58604339
0.54182304 0.18927567 0.08102387
0.54774682 0.19148779 0.56725345
0.54866087 0.68969468 0.04253504
0.54918999 0.67048977 0.55525965
0.29941244 0.30338769 0.20237809
0.31014643 0.30815162 0.68434519
0.29202735 0.82474458 0.18506184
0.29939813 0.80725734 0.71527282
0.80625471 0.31407898 0.17382239
0.81484208 0.29548092 0.68178665
0.80602681 0.80528963 0.19972297
0.82095874 0.80641129 0.68607038
0.30023818 0.19062191 0.31310125
0.31765236 0.18711148 0.79905095
0.30626975 0.70941931 0.29460619
0.28954942 0.67078497 0.81183256
0.81175961 0.20685955 0.29942276
0.80452108 0.19098523 0.80581352
0.80525891 0.70180038 0.32052422
0.82645813 0.69148333 0.80701896
0.16780696 0.20911103 0.21272509
0.19100273 0.20729403 0.69140135
0.17799360 0.71644440 0.19223980
0.17467950 0.69583640 0.68331485
0.69625521 0.20442426 0.17894111
0.69273974 0.18430944 0.68644423
0.69730499 0.68588744 0.19766300
0.70590188 0.69072754 0.70188968
0.19494227 0.31998796 0.32691117
0.20880741 0.31762559 0.81679145
0.17361648 0.82501519 0.31168832
0.18280163 0.80332933 0.81739365
0.69451174 0.32228953 0.29162565
0.69841253 0.31692221 0.79345055
0.67736484 0.80465172 0.31269087
0.70512297 0.81014197 0.80290208
0.98831504 0.99775412 0.00468129
0.00107979 0.00598007 0.50617920
0.98723148 0.49294556 0.00338270
0.99600479 0.50102258 0.50737453
0.50045319 0.99225434 0.00210085
0.50488068 0.99945738 0.50544040
0.50534640 0.50104479 0.00632801
0.49607609 0.49807691 0.50066711
0.00015041 0.25598851 0.25058562
0.01536018 0.25400741 0.75097065
0.99809885 0.75391693 0.24016156
0.99966212 0.76564444 0.74786899
0.50712998 0.25167225 0.26168136
0.49833846 0.24962743 0.76205654
0.50484404 0.74222423 0.23672990
0.49173721 0.74616375 0.75092621
0.25253884 0.01015801 0.26278779
0.24739671 0.01233676 0.74423042
0.25842714 0.51807146 0.23230291
0.25895062 0.50403571 0.74979996
0.75799504 0.00717415 0.27196159
0.73621551 0.99816004 0.75664462
0.75396161 0.50516304 0.24685037
0.74996071 0.50088113 0.73642192
0.24909608 0.23244822 0.00343171
0.24423358 0.25683139 0.50669604
0.23924353 0.74626315 0.00920916
0.25110813 0.75717619 0.48800801
0.75599420 0.24747003 0.99643532
0.74411403 0.23897864 0.50262122
0.74535106 0.76064328 0.99182174
0.75085223 0.74249192 0.50738134
0.99296921 0.99783890 0.26014444
0.00131245 0.01557814 0.75244568
0.99572472 0.52621272 0.26000052
0.98674242 0.49853678 0.75213706
0.52150843 0.00217296 0.24182205
0.50117670 0.99945319 0.76268276
0.49610328 0.49506261 0.23864838
0.50908920 0.49429403 0.75020406
0.26573446 0.00624563 0.99553496
0.25828669 0.00289795 0.49465654
0.23318364 0.49294658 0.98769386
0.26477326 0.50216644 0.49544587
0.73479272 0.00642449 0.00655227
0.74329030 0.99375998 0.50219770
0.75090384 0.49481117 0.00325639
0.73655399 0.49512046 0.49090202
0.01736579 0.24413651 0.00195590
0.00580537 0.24971562 0.48634968
0.99748294 0.73806821 0.99193823
0.01253229 0.75786836 0.51636914
0.50214324 0.24926559 0.00771102
0.49224863 0.25035677 0.50619196
0.48519331 0.74945506 0.98659714
0.49243351 0.74241473 0.51033020
0.23727573 0.25551025 0.26323131
0.25684683 0.25361971 0.75123873
0.23484261 0.77329358 0.24855897
0.23406000 0.74503571 0.76247965
0.75086786 0.25842018 0.23666445
0.74943278 0.24820148 0.74106801
0.74548769 0.74848286 0.26287271
0.76660332 0.75383834 0.75137435
Direct configuration=      3
0.01636262 0.88613482 0.02092571
0.01344092 0.04955084 0.41628197
0.03475888 0.48948145 0.10666134
0.01546309 0.43981514 0.58412947
0.57675459 0.99975983 0.92760377
0.60303419 0.94010880 0.50832437
0.48313473 0.55250885 0.10362888
0.58611718 0.59188061 0.48177652
0.22352019 0.60895861 0.24452791
0.25866869 0.42255395 0.66276608
0.23601858 0.95483329 0.16449442
0.37063448 0.01298501 0.70792611
0.83720454 0.49094526 0.31401929
0.83147335 0.57802774 0.74023498
0.82158514 0.99729713 0.34950234
0.77537909 0.97848338 0.86971614
0.09512811 0.23145435 0.30300636
0.07827212 0.17634927 0.75372197
0.08660069 0.70898842 0.24363101
0.08214013 0.74776876 0.68714526
0.55880857 0.15163508 0.23719129
0.60170859 0.25952308 0.69774066
0.47158491 0.72121487 0.13312097
0.49458490 0.81723459 0.81647455
0.35736198 0.52346169 0.22480311
0.22742348 0.55794996 0.84927141
0.25669422 0.06991954 0.37405356
0.25413061 0.10604963 0.68904472
0.75613710 0.40323187 0.23063325
0.74765958 0.48816243 0.86258811
0.69388920 0.01967627 0.15200583
0.71618561 0.98655425 0.64169515
0.89221280 0.25850743 0.24089748
0.91389516 0.33432875 0.73054500
0.00573260 0.75045202 0.37959392
0.91316525 0.74768610 0.83377115
0.47475957 0.35235194 0.28689400
0.50841347 0.12660065 0.80585881
0.48640538 0.74356194 0.36213193
0.53931212 0.65117567 0.66683247
0.95182671 0.40359084 0.46424683
0.02291649 0.37529184 0.01591882
0.99518038 0.11298242 0.57602363
0.02386307 0.97921163 0.13043144
0.42754802 0.40109886 0.48369217
0.49421256 0.41218818 0.08432519
0.46113226 0.88329435 0.48498459
0.57735589 0.99271362 0.07191535
0.03087096 0.28138340 0.14649657
0.08549031 0.33743753 0.75260402
0.92170022 0.68262896 0.26415496
0.07970718 0.76692344 0.83331389
0.49097856 0.23715076 0.13937661
0.57798784 0.26704251 0.85075859
0.51160718 0.63371475 0.27425101
0.51356045 0.67547334 0.85051229
0.31778067 0.23856041 0.41372938
0.24366437 0.23843456 0.88380770
0.17526368 0.84369852 0.50104820
0.25659786 0.63068077 0.02691380
0.75353265 0.16599434 0.59903674
0.78634861 0.22322741 0.10775479
0.75021483 0.67114870 0.58082127
0.74057632 0.69347903 0.89780718
0.95355636 0.26622965 0.36858996
0.92879111 0.18061872 0.76347019
0.89487826 0.84052647 0.25358563
0.92033987 0.73877807 0.66307908
0.51645430 0.22075039 0.36465820
0.51614157 0.36757206 0.76389713