Li192 P32 S160 I32
1.0
20.433000 0.000000 0.000000
0.000000 20.433000 0.000000
0.000000 0.000000 20.433000
Li I S P
192 32 160 32
Direct configuration=      1
0.99456372 0.89102221 0.96072335
0.99620204 0.07929885 0.41479125
0.03004720 0.48318025 0.11264897
0.00381014 0.45909264 0.61004525
0.58343319 0.99020541 0.91819790
0.58399435 0.92591702 0.50787951
0.49493005 0.57355670 0.08606469
0.57902572 0.58602788 0.49284501
0.26212396 0.61607365 0.22213606
0.25608757 0.41897044 0.66702827
0.24425757 0.92475128 0.16261199
0.36363460 0.00923281 0.74367427
0.83455381 0.50493210 0.33373096
0.82806968 0.58188015 0.74424973
0.83126719 0.99287095 0.33905411
0.75214611 0.99326090 0.86631105
0.10836890 0.22701657 0.27363484
0.03263760 0.14254889 0.75107174
0.08387717 0.67451248 0.24465142
0.08082203 0.75882263 0.67464658
0.58151641 0.16692084 0.24643431
0.58030157 0.25352549 0.66742290
0.47705188 0.72662303 0.14043339
0.49256872 0.82978902 0.83484993
0.36404726 0.51250160 0.21591865
0.24321508 0.58012340 0.83468503
0.25433413 0.08089341 0.33457044
0.25735124 0.11157063 0.71886176
0.76291950 0.39089230 0.26113302
0.76814692 0.48435398 0.86601724
0.66925911 0.00886145 0.17684651
0.72499249 0.98960212 0.64047558
0.88593116 0.23961621 0.22812239
0.97151373 0.35629576 0.78911096
0.01844729 0.73355274 0.36528712
0.91413388 0.74573246 0.83665125
0.42107218 0.33412407 0.25471763
0.50064393 0.13614901 0.75650640
0.49509365 0.76150039 0.36528792
0.50266442 0.66158746 0.67302564
0.97667210 0.39458285 0.46341418
0.01834244 0.38999068 0.99447040
0.00293731 0.09163862 0.57970946
0.00601515 0.96076602 0.11352952
0.41880596 0.41615698 0.51211765
0.50656120 0.40973274 0.07999437
0.43041866 0.91183612 0.50798481
0.57542342 0.00525678 0.07969002
0.03026814 0.27486743 0.14334767
0.11255902 0.28421535 0.74141878
0.91409078 0.67197407 0.25166525
0.07627815 0.74890546 0.82784494
0.47637637 0.23371781 0.13628629
0.58459617 0.24667166 0.83619346
0.52129853 0.63631981 0.26859061
0.50400792 0.67751043 0.83387359
0.33369260 0.25105939 0.41640825
0.23099143 0.23075611 0.88497538
0.16435833 0.83995686 0.49862917
0.27648284 0.63463227 0.01828588
0.73996892 0.16154296 0.58058795
0.76542411 0.21948827 0.10993143
0.75029872 0.66202569 0.57943501
0.75549655 0.66497368 0.91699314
0.96687414 0.25900615 0.36061525
0.88954652 0.22896718 0.72611344
0.91136663 0.82898674 0.26163742
0.91624247 0.74721061 0.66365045
0.51146964 0.23130842 0.36235381
0.48978383 0.36459566 0.76654686
0.51553785 0.86400840 0.22914674
0.49301501 0.83218520 0.66571768
0.41249067 0.08414821 0.50148537
0.50985762 0.88365911 0.01692892
0.58702500 0.41531982 0.49484030
0.61264974 0.52043779 0.98671743
0.11247184 0.01058181 0.48527585
0.88615084 0.97704106 0.99158971
0.11259961 0.48663711 0.51575258
0.11160934 0.53036854 0.97714851
0.41799144 0.00773720 0.08235598
0.48662166 0.02013486 0.61688137
0.50719270 0.41687322 0.91765726
0.48409974 0.47632946 0.38733253
0.97738847 0.10644164 0.03813070
0.99279403 0.91484850 0.42608690
0.00678831 0.53116924 0.88927549
0.01463480 0.54064432 0.39655563
0.41057114 0.99325709 0.92222040
0.57517580 0.08870020 0.49850550
0.49118955 0.57757053 0.92512612
0.42644834 0.58036378 0.50809141
0.01566816 0.03746730 0.89271512
0.88462296 0.01651861 0.52019005
0.97448467 0.60954163 0.02810730
0.99192526 0.61186983 0.54360685
0.24978713 0.91232276 0.32933134
0.13682440 0.97928128 0.73586588
0.28352491 0.50539101 0.35974406
0.13450014 0.48905252 0.74227015
0.77358376 0.11124208 0.23989058
0.82956932 0.91512668 0.74913334
0.83639905 0.51184363 0.17165647
0.72899584 0.49076287 0.63878855
0.25391876 0.08405198 0.16993936
0.24401075 0.96472793 0.63919361
0.22599224 0.47026309 0.13853536
0.36238773 0.52422273 0.73832300
0.73438415 0.89046464 0.23912663
0.67010157 0.08661885 0.75669240
0.66313943 0.49565980 0.33111805
0.67111389 0.58582118 0.76006817
0.33257313 0.32689668 0.99125450
0.16257885 0.24886000 0.41959683
0.27298040 0.86193339 0.98478254
0.32478668 0.82666121 0.49073071
0.76204803 0.27367077 0.88634680
0.74748197 0.33238170 0.57704302
0.86329241 0.73726805 0.01260349
0.74669335 0.66904156 0.41822280
0.16487044 0.16513608 0.00325778
0.16848573 0.25857248 0.58042159
0.32670858 0.75392856 0.09019992
0.16275219 0.66510260 0.50523555
0.74162588 0.36250141 0.03607847
0.85941276 0.23019169 0.52201604
0.63617618 0.72752660 0.98631397
0.75478792 0.82895168 0.58855343
0.58305599 0.32930162 0.24414310
0.42221572 0.24841691 0.67460370
0.38454579 0.77552951 0.26629246
0.61129960 0.76064863 0.73529628
0.98335011 0.36604038 0.26544670
0.01787191 0.22515550 0.86144355
0.07503633 0.84010661 0.24839543
0.00303142 0.63704439 0.75179967
0.11351464 0.98491588 0.02139533
0.00243655 0.92359494 0.58920748
0.89265014 0.47618265 0.98165539
0.88428308 0.52039789 0.51845611
0.51128679 0.10944292 0.97306758
0.48428400 0.98774875 0.38861857
0.39019698 0.47952907 0.98573509
0.52862804 0.48630107 0.61294356
0.13561067 0.01113399 0.26995253
0.26601059 0.88934234 0.78664776
0.14160935 0.51915659 0.27562055
0.24361803 0.58997531 0.67121660
0.66506695 0.00660511 0.33487198
0.83048529 0.08110106 0.74680488
0.67034538 0.49640195 0.16574934
0.66258157 0.41790662 0.75404834
0.97860563 0.13579194 0.23188623
0.01400186 0.28039102 0.63932537
0.98998127 0.74707484 0.13782713
0.97987921 0.86307780 0.76592843
0.41382594 0.16825231 0.25258403
0.41229948 0.24970678 0.83158163
0.61047615 0.76226620 0.23397330
0.38481636 0.72990900 0.73331890
0.23631686 0.26508475 0.11334830
0.26095410 0.36630124 0.48488751
0.16355672 0.75656743 0.07635122
0.32768490 0.67957979 0.50865664
0.63597960 0.27074815 0.01811701
0.63436703 0.24002721 0.48657248
0.74504902 0.82742805 0.08601257
0.74103032 0.83420663 0.41859686
0.25932885 0.38923317 0.26992421
0.25703652 0.42488611 0.83404889
0.36275112 0.98736660 0.26392682
0.23135366 0.03220815 0.86061525
0.72947004 0.61175180 0.27052667
0.82217422 0.40810844 0.74709635
0.83218354 0.99503123 0.17046144
0.66814578 0.91255987 0.75765557
0.33362339 0.17074454 0.00300574
0.32605466 0.24807709 0.57962128
0.33084863 0.74331675 0.91369780
0.22050865 0.73509824 0.38647572
0.86456154 0.26438620 0.98998248
0.75107427 0.16422926 0.41520615
0.75063735 0.66747507 0.08718278
0.86246762 0.76942244 0.48776441
0.24177328 0.13670606 0.49046498
0.17101580 0.33627070 0.99495770
0.22913500 0.76668482 0.61403857
0.17320041 0.73894163 0.92319989
0.75377990 0.32841239 0.41470169
0.72261518 0.13947754 0.98018390
0.63587461 0.76090223 0.52154307
0.75007182 0.83010633 0.92026292
0.12712194 0.11994241 0.37849483
0.12531055 0.12802250 0.86979391
0.12249310 0.63116391 0.37360856
0.11640095 0.62082699 0.86892254
0.62094768 0.13382605 0.37771748
0.62409947 0.12045413 0.88179113
0.62305300 0.62495744 0.36796067
0.62376919 0.62346747 0.88513248
0.36916727 0.38241536 0.37864443
0.38174613 0.37917298 0.87167483
0.38229827 0.87735761 0.37137382
0.36813997 0.87156190 0.87719550
0.87654815 0.37456586 0.36581630
0.86715232 0.37223779 0.88081074
0.87031761 0.86949271 0.38469931
0.87585345 0.87800614 0.87625695
0.37658122 0.13027845 0.12640726
0.37697649 0.12141836 0.63296153
0.37048633 0.62479642 0.12711515
0.37340806 0.62689527 0.63235928
0.87278469 0.12681673 0.13509667
0.87134530 0.12709317 0.62085274
0.87962339 0.63762307 0.12334620
0.87420215 0.62160983 0.62128301
0.12587573 0.37404397 0.12171976
0.12230068 0.38051718 0.62703725
0.12047346 0.88040304 0.12194244
0.13032047 0.87876562 0.62899964
0.62921469 0.36992566 0.12147690
0.62467780 0.37933012 0.62461305
0.62158051 0.87751166 0.13229059
0.62673328 0.86961612 0.62965211
0.04981366 0.45373205 0.31677574
0.04744350 0.44496859 0.81396344
0.05041284 0.93863691 0.31783135
0.04786395 0.95048518 0.80952241
0.56107238 0.43440616 0.30359864
0.56368034 0.44770476 0.81521888
0.56055654 0.94860038 0.30272972
0.56324746 0.92776728 0.81602568
0.44700671 0.06382970 0.30386938
0.44886272 0.04807164 0.81753479
0.44438290 0.54860249 0.29972148
0.44917166 0.56822444 0.81177194
0.93379484 0.05636305 0.31319379
0.94229842 0.07305982 0.79900814
0.93616237 0.56949283 0.30982654
0.93041458 0.55730761 0.80408292
0.44668278 0.43295135 0.18480380
0.44992618 0.45305208 0.69758252
0.44626938 0.94917667 0.18687590
0.44725799 0.93916086 0.69719789
0.94329328 0.45201121 0.19206054
0.93186180 0.42764570 0.69851309
0.93149902 0.93295855 0.20265925
0.93329555 0.94471062 0.69102422
0.04738974 0.04630750 0.19575694
0.05708361 0.05146002 0.68264107
0.05988675 0.56470647 0.19722546
0.04423974 0.54621126 0.68583118
0.56233368 0.06603177 0.18430397
0.56492573 0.05041145 0.70322362
0.56144562 0.55321115 0.18724288
0.56955887 0.56283853 0.69725469
0.31350127 0.05480503 0.43772390
0.31348080 0.06540449 0.94483952
0.31800908 0.57125681 0.45312462
0.30752172 0.54988153 0.93684493
0.80144275 0.05490029 0.44024315
0.80263045 0.05235247 0.95453873
0.80275051 0.55822872 0.43804187
0.81247791 0.56073189 0.94880147
0.30357453 0.43122264 0.05092145
0.31052632 0.44601600 0.56161861
0.31302960 0.94762137 0.06198258
0.31700095 0.93237427 0.55044454
0.81489379 0.45030875 0.06839813
0.80020156 0.44363956 0.55396275
0.80251221 0.93493846 0.06737381
0.79632262 0.94272115 0.55665419
0.20157491 0.45930382 0.43989031
0.18456509 0.44138309 0.93402071
0.19645336 0.93887836 0.43553174
0.19881325 0.95053967 0.94543190
0.68911038 0.43625547 0.43387508
0.69820071 0.44375876 0.95526774
0.68097057 0.94055597 0.43689443
0.68837007 0.93428183 0.94928424
0.19567976 0.06353898 0.06297020
0.20188227 0.04614719 0.55729618
0.19553381 0.55195012 0.05553775
0.19328766 0.56257679 0.56426957
0.68499317 0.05488629 0.06419890
0.68034463 0.05680623 0.55329768
0.69317597 0.56367849 0.06557052
0.68339716 0.55713792 0.54992249
0.43762023 0.31255441 0.05186333
0.43357249 0.30698567 0.56805606
0.43382263 0.79911048 0.05530475
0.42685287 0.80433176 0.56727181
0.95322482 0.31039902 0.05686961
0.94385188 0.31173193 0.55002770
0.94995909 0.81355511 0.04519008
0.94569003 0.81466053 0.56607893
0.05523603 0.30407730 0.43316217
0.06710809 0.29864812 0.93963675
0.05937740 0.81359453 0.44676638
0.06865771 0.80353788 0.93436112
0.54562097 0.30943096 0.44680085
0.55661278 0.30942546 0.93609667
0.54904760 0.81214240 0.45699798
0.54971266 0.79874415 0.94186836
0.43550345 0.19177646 0.44759530
0.43447740 0.19503135 0.93606827
0.43570759 0.69379842 0.44741904
0.43279686 0.68245821 0.93550609
0.94351837 0.18451494 0.44931411
0.94761607 0.18687274 0.94962106
0.95040060 0.69294730 0.45696670
0.94666123 0.68864396 0.93987642
0.06274751 0.18888626 0.06577318
0.06296586 0.19838757 0.56273288
0.06013306 0.69172905 0.05573125
0.06632933 0.70113967 0.56992108
0.55004928 0.19440462 0.05012130
0.55260684 0.19308576 0.56277691
0.54754689 0.68148745 0.05459661
0.55030703 0.69008169 0.56481778
0.31068643 0.30491835 0.20233809
0.31734693 0.31283843 0.68439028
0.30237410 0.81868222 0.18929668
0.29843661 0.80682890 0.70308871
0.79885987 0.30531072 0.18891522
0.80227260 0.30418973 0.68396456
0.81010743 0.80972033 0.19431934
0.81424629 0.80662147 0.69373379
0.31328468 0.18546273 0.31716703
0.30820949 0.19247359 0.79815918
0.29789657 0.70047873 0.30101342
0.30164388 0.68445594 0.81016384
0.80816609 0.19868635 0.31190313
0.80046923 0.19141094 0.80096487
0.80947312 0.69210261 0.31150835
0.81246430 0.68726854 0.80947862
0.19611857 0.18848673 0.19921214
0.19010723 0.20605485 0.68806703
0.18591231 0.70019230 0.18297472
0.18159491 0.69186013 0.69674495
0.68989187 0.18670649 0.19789826
0.68263234 0.18810024 0.68563908
0.69496724 0.69347673 0.19246123
0.69767452 0.68932038 0.69326124
0.19394998 0.30101658 0.31571631
0.20421315 0.31826968 0.80533023
0.18225680 0.81466092 0.30343243
0.18484513 0.80293785 0.81885827
0.68719303 0.31094731 0.31000700
0.68574861 0.30644194 0.80116478
0.69115407 0.80612026 0.30881822
0.69615955 0.80405286 0.80920758
0.99902176 0.99832503 0.00230844
0.99865808 0.00339758 0.50301591
0.00300864 0.50209569 0.00067438
0.99825797 0.50187114 0.50391149
0.49828134 0.99671837 0.99771185
0.49752804 0.00350149 0.50299621
0.50147010 0.49513385 0.00174736
0.50343116 0.49593251 0.50009917
0.99758753 0.24997780 0.25061563
0.00183346 0.25263603 0.75050837
0.99836171 0.75209533 0.25246443
0.99338862 0.75076287 0.75075164
0.49861307 0.24803789 0.24939328
0.50172608 0.25038727 0.75514382
0.49755831 0.75086504 0.25090300
0.49781829 0.75133269 0.74771361
0.24930012 0.00017939 0.25206359
0.24950763 0.99943689 0.74996176
0.25306430 0.50231502 0.24749017
0.24898746 0.50260434 0.74791201
0.75106263 0.00103131 0.25506048
0.74772861 0.99813829 0.75255107
0.75057940 0.50234339 0.25178769
0.74768918 0.49722321 0.75252156
0.24699954 0.24855118 0.99851071
0.24805407 0.25169566 0.49669503
0.25395590 0.74771760 0.00204840
0.23977442 0.75176242 0.49976414
0.74970202 0.25124832 0.00014984
0.74789917 0.24600641 0.49871395
0.74922740 0.74653663 0.00111781
0.74834976 0.75107587 0.50220583
0.98978811 0.99280886 0.25879648
0.99267443 0.00510897 0.74494627
0.99590075 0.51121829 0.25378242
0.98687814 0.49397130 0.75012100
0.50534180 0.00850404 0.24338107
0.50779382 0.98980791 0.75997103
0.50483886 0.49132711 0.24277889
0.50889421 0.50892315 0.75703818
0.25642340 0.00808095 0.00490397
0.25879136 0.99190954 0.49413800
0.24765381 0.49207630 0.99349381
0.25729684 0.51120153 0.50609184
0.74314067 0.99311537 0.01054156
0.73900963 0.99838234 0.49524029
0.75438129 0.50626212 0.01060077
0.74238149 0.49858246 0.49225598
0.00900829 0.24595859 0.00315446
0.00370868 0.24841469 0.49885685
0.00753953 0.74939571 0.99266718
0.00645697 0.75672945 0.51073512
0.49354346 0.25420660 0.99207603
0.49080670 0.25072864 0.50784285
0.48913411 0.73927163 0.99603538
0.48976967 0.75000626 0.51064799
0.25485531 0.24355833 0.25951113
0.25657966 0.25884415 0.74302232
0.24073680 0.75964269 0.24301076
0.24050868 0.74553112 0.75826895
0.74381004 0.25053106 0.25371745
0.74178524 0.24744943 0.74146561
0.75341081 0.75038203 0.25215638
0.75630286 0.74729496 0.75134520
Direct configuration=      2
0.03708401 0.89078819 0.00372577
0.99363258 0.08046109 0.41408866
0.03026686 0.48798254 0.11336324
0.00654471 0.45565584 0.60713225
0.58640571 0.99154212 0.91926730
0.58595524 0.92134061 0.49870272
0.50418671 0.57695834 0.08851437
0.58313316 0.58216370 0.49249298
0.26138112 0.61587768 0.22112524
0.25019220 0.42015244 0.66833049
0.24152887 0.92594267 0.16196023
0.36612767 0.01372103 0.73285996
0.83352173 0.50560934 0.33676964
0.83129842 0.58077880 0.74715034
0.83197247 0.99149139 0.33772372
0.76353276 0.98532136 0.86589995
0.10636685 0.22837130 0.27493331
0.08529071 0.16585561 0.74097971
0.08467576 0.67605771 0.24463125
0.08307171 0.75965590 0.67359393
0.57797759 0.16691560 0.24811683
0.58160802 0.25459163 0.67201892
0.47930530 0.72794435 0.13979300
0.49122187 0.83252882 0.83350040
0.36384211 0.51234555 0.21758450
0.24835382 0.58277574 0.83597008
0.25284630 0.08170519 0.33643887
0.26065741 0.11330610 0.71620837
0.76395692 0.39229283 0.26433430
0.77060547 0.48407003 0.86849795
0.67206661 0.00983769 0.17382998
0.72401508 0.99296936 0.63911987
0.88279157 0.23918275 0.22828114
0.96216759 0.35276366 0.78364358
0.01679642 0.73628570 0.36414328
0.91503723 0.75200638 0.83441475
0.42106353 0.33657517 0.25576265
0.51138112 0.13842400 0.77028159
0.49033950 0.76670829 0.36390403
0.50660184 0.66311780 0.67216179
0.98012952 0.39461432 0.46199765
0.02640100 0.38787873 0.00941259
0.00579545 0.09092714 0.57905502
0.01558843 0.97507252 0.11548622
0.41821793 0.41872932 0.51363890
0.50637452 0.41010943 0.08025183
0.42934748 0.90373221 0.50261864
0.57447545 0.00530692 0.08005481
0.02948967 0.27233178 0.14292795
0.09586507 0.33266056 0.74918642
0.91434176 0.67333408 0.25032907
0.07771011 0.75108199 0.82514532
0.47653139 0.23572536 0.13803538
0.58697461 0.25343539 0.83821151
0.52200895 0.63783198 0.27141674
0.49731966 0.67718848 0.83516463
0.33701372 0.24744771 0.41736328
0.23070648 0.23181993 0.88637663
0.16882616 0.84062135 0.49651770
0.26921011 0.63604355 0.01704678
0.74328706 0.16282686 0.59106516
0.75935075 0.21634068 0.11339698
0.75222956 0.66326415 0.58118397
0.75778365 0.66532332 0.91728541
0.96653819 0.25978276 0.36004861
0.89881287 0.21557524 0.73298810
0.91433027 0.83328754 0.25628156
0.91687396 0.74743241 0.66250556
0.51363242 0.23654191 0.36483060
0.48743093 0.36522067 0.77190045
0.51393598 0.86400172 0.22553386
0.50108299 0.83254001 0.66795622
0.39320718 0.03779016 0.52700693
0.50735039 0.88508922 0.01484614
0.58738575 0.41920139 0.49697983
0.61140991 0.52009606 0.98528263
0.11272098 0.01447375 0.47861081
0.88889531 0.96367885 0.99735873
0.11392027 0.49219054 0.51586091
0.10691678 0.53125507 0.96858849
0.41622404 0.00924208 0.07912067
0.52426378 0.99469532 0.61304364
0.49797439 0.41930817 0.92065724
0.48242185 0.47738854 0.38950416
0.97439049 0.10791801 0.03351719
0.99452862 0.91487502 0.42527560
0.98214342 0.48612371 0.88972966
0.01322549 0.54189057 0.39616516
0.41193051 0.99511050 0.91969231
0.53383734 0.10654737 0.48528916
0.48945611 0.57653594 0.92456986
0.43024161 0.58786474 0.50915021
0.98197944 0.00882232 0.88862383
0.88684201 0.01489490 0.52300439
0.97229414 0.60842094 0.01919593
0.99014860 0.61236149 0.54362541
0.25254202 0.91296201 0.32747284
0.13811028 0.98645381 0.73310179
0.28319016 0.50413521 0.35872919
0.13424336 0.51428898 0.76182185
0.74160707 0.11254080 0.27417184
0.83271181 0.91765426 0.74365826
0.83701665 0.51452937 0.17603158
0.73073488 0.49289069 0.64117380
0.24892137 0.08682325 0.16951121
0.24454788 0.96731105 0.63648178
0.22241688 0.47342121 0.13750364
0.36237421 0.52104666 0.73926661
0.73539173 0.89097902 0.23688812
0.67315771 0.08630594 0.76097512
0.66279351 0.49724636 0.33345361
0.67282285 0.58581648 0.76043760
0.33400807 0.33310605 0.99085104
0.16466807 0.24279180 0.42065718
0.26921019 0.86406278 0.98420388
0.34903154 0.78333625 0.48026452
0.77173863 0.27337022 0.89108293
0.75367278 0.33424922 0.58040158
0.86411897 0.73893004 0.01292818
0.75178776 0.66812285 0.41821529
0.16779627 0.17222174 0.00569120
0.16902540 0.25719952 0.57848255
0.32636921 0.75374202 0.08809837
0.15564790 0.67042585 0.50069626
0.74206668 0.36107393 0.03824204
0.86174539 0.22945768 0.52628747
0.63715001 0.73169702 0.98455917
0.75182490 0.82950731 0.58733534
0.58339842 0.33034694 0.24525327
0.42245841 0.25024176 0.67605630
0.38460732 0.77692791 0.26311011
0.61255970 0.74495725 0.75825915
0.98077819 0.36693840 0.26563187
0.02187440 0.22042158 0.85931701
0.07580232 0.84039023 0.24597833
0.00581923 0.63747363 0.75470216
0.10988415 0.02772114 0.98335845
0.00525419 0.92429052 0.58670503
0.89031608 0.47317946 0.99563329
0.88537636 0.51921625 0.52007531
0.51151153 0.11112583 0.97444695
0.47840989 0.98418847 0.38665546
0.38711047 0.51035693 0.01900166
0.52906873 0.48734463 0.61435780
0.13534332 0.01332788 0.27502875
0.26728883 0.89198663 0.78492022
0.14095395 0.51959454 0.27682767
0.24513507 0.59019082 0.67292115
0.66155744 0.99856583 0.33538516
0.83020005 0.07878957 0.74675671
0.67217027 0.49654385 0.16595528
0.66306497 0.41848369 0.75827736
0.97715923 0.13789902 0.23196816
0.01729286 0.27369210 0.63782957
0.99116791 0.74294585 0.13587068
0.98579571 0.86706323 0.75809217
0.41364500 0.17042450 0.25419760
0.41047081 0.25003733 0.83195759
0.61112707 0.76391669 0.23452410
0.38648166 0.73135923 0.73117871
0.23881328 0.26795930 0.11387624
0.26072980 0.36439466 0.48286448
0.16150879 0.75511358 0.07465871
0.29173883 0.65126903 0.52739442
0.63552731 0.27097261 0.01807772
0.63671826 0.25773394 0.50565040
0.74485379 0.82783222 0.08605439
0.74506893 0.83271235 0.41711436
0.25692786 0.38938559 0.26932442
0.25536325 0.42192273 0.83193390
0.36107094 0.00093662 0.24961472
0.23753124 0.03459152 0.85828647
0.72890113 0.61300952 0.27083199
0.82152193 0.40762110 0.74803138
0.83266911 0.00567298 0.17387073
0.66730203 0.91280649 0.75672920
0.33446264 0.17344989 0.00413911
0.32597656 0.25534726 0.58115023
0.33103189 0.74467967 0.91385941
0.22245509 0.73464022 0.38475843
0.86396246 0.23973680 0.01468169
0.73144884 0.14340199 0.45117840
0.75091047 0.66821954 0.08689181
0.86431516 0.77139243 0.48696975
0.26452990 0.13689394 0.51338076
0.17105625 0.33741819 0.99377760
0.23150695 0.77214974 0.61222486
0.17335378 0.73932984 0.92054670
0.76721031 0.29150482 0.40093924
0.72497145 0.13795700 0.97764625
0.63860597 0.74745657 0.50619727
0.75389907 0.83101898 0.91964530
0.12335213 0.11907350 0.37397469
0.13005879 0.12815601 0.87513330
0.12259964 0.63149865 0.37245307
0.11777544 0.62063495 0.86286652
0.61986022 0.12820303 0.37483115
0.62163693 0.12410294 0.88213999
0.62494312 0.62837744 0.37013948
0.62278846 0.62765642 0.88305709
0.36945500 0.38185949 0.38001447
0.37907992 0.37778807 0.86867962
0.38221684 0.87270082 0.37169488
0.36737056 0.87284359 0.87808757
0.87653111 0.37477707 0.36703779
0.87059857 0.37986606 0.88133233
0.87326989 0.86863043 0.38180939
0.87637766 0.88370048 0.87294598
0.37504240 0.13042336 0.12862935
0.36907745 0.12688545 0.62809552
0.37113297 0.62098141 0.12284582
0.37547191 0.62540117 0.63453152
0.87416525 0.13325897 0.13074477
0.87359061 0.12585465 0.62165399
0.88099511 0.63727760 0.12139962
0.87525132 0.62133369 0.62336645
0.12347148 0.37526753 0.12055518
0.12348342 0.38028632 0.61992518
0.11898348 0.87922689 0.11992590
0.13201965 0.87972848 0.62747318
0.62824688 0.37052281 0.12218211
0.62743751 0.37900676 0.62643192
0.62128083 0.87776901 0.13176103
0.62595311 0.87792165 0.62640580
0.04873697 0.45443845 0.31723365
0.04927111 0.43705353 0.80591352
0.04946612 0.93808581 0.31609334
0.04924060 0.95543208 0.80571936
0.55985914 0.43520913 0.30602944
0.56267440 0.44878631 0.81916733
0.55707322 0.94576655 0.30201392
0.56301438 0.92995436 0.81708953
0.44705897 0.06412528 0.30270688
0.44655301 0.04905478 0.81459949
0.44400429 0.55014394 0.30063912
0.44748956 0.56770161 0.81226676
0.93274951 0.05703487 0.31200849
0.93848061 0.07447431 0.79907137
0.93510846 0.57060630 0.30929936
0.93559445 0.55369636 0.80515585
0.44752391 0.43488127 0.18545253
0.45158564 0.45210226 0.69869217
0.44609076 0.95082489 0.18381293
0.45223907 0.94052574 0.69406732
0.94352452 0.45366476 0.19141254
0.93035092 0.42921002 0.69376928
0.93363942 0.93861874 0.19719193
0.93737237 0.95113632 0.68630284
0.05064554 0.05157372 0.19941908
0.05880882 0.06202105 0.68402695
0.06034988 0.56618875 0.19854527
0.04601681 0.54622047 0.68426507
0.56411593 0.06562468 0.18509246
0.56772198 0.05413881 0.70629758
0.56388046 0.55452911 0.19124418
0.57022178 0.56275556 0.69935305
0.31426989 0.05614682 0.43822908
0.31532516 0.06710913 0.94636136
0.32374752 0.56577757 0.45171262
0.30742384 0.55216446 0.93923533
0.80619983 0.05168189 0.43961802
0.80716736 0.04955113 0.95642427
0.80469916 0.55931475 0.44092851
0.81384058 0.55991662 0.95324981
0.30101315 0.43468369 0.05266001
0.30863584 0.44323564 0.56270306
0.30987843 0.94909565 0.06212071
0.31886317 0.93635338 0.54877150
0.80869450 0.45140009 0.07560355
0.80046512 0.44571860 0.55655751
0.80008592 0.93645278 0.07327499
0.79770725 0.94175757 0.55905191
0.20108672 0.45921308 0.43989180
0.18488365 0.44191649 0.93210162
0.19672166 0.93932270 0.43286156
0.19770146 0.95493545 0.94296621
0.68829330 0.44037164 0.43668900
0.69841990 0.44395795 0.95658105
0.68613418 0.93730933 0.43663290
0.69109380 0.93388076 0.94883465
0.19405124 0.06708717 0.06078015
0.19938411 0.04589732 0.55495244
0.18942764 0.55269182 0.05234027
0.20010120 0.56845606 0.56068257
0.68403367 0.05574542 0.06120554
0.68367834 0.06021597 0.54670533
0.68980333 0.56587317 0.06499850
0.68512611 0.56050475 0.55347734
0.43636698 0.31327289 0.05359638
0.43356280 0.31039022 0.56913832
0.43362354 0.79956542 0.05593990
0.43417050 0.80391734 0.56935439
0.95213610 0.30854241 0.05845811
0.94753641 0.31187437 0.54995241
0.95272970 0.81303106 0.04585451
0.94665672 0.81604440 0.56522996
0.05700342 0.30268893 0.43061047
0.06581255 0.30086107 0.93967881
0.06166569 0.81300018 0.44695185
0.06897155 0.80306553 0.93222639
0.54792986 0.31334690 0.45010243
0.55487986 0.31347341 0.93860814
0.55292981 0.80927011 0.45398666
0.54777973 0.80016505 0.94045091
0.44175177 0.19087857 0.45118005
0.43484400 0.19624669 0.93682454
0.43384241 0.69766941 0.44750898
0.43172059 0.68175270 0.93819188
0.94225750 0.18578927 0.44851358
0.94722680 0.18854748 0.94706397
0.95083150 0.69369574 0.45642066
0.94466856 0.69164749 0.93631174
0.06235786 0.18814775 0.06335505
0.06519680 0.19614649 0.55822231
0.05943422 0.68862355 0.05091904
0.06514035 0.70066866 0.57071032
0.54946611 0.19611061 0.05134510
0.55391790 0.19714878 0.56641158
0.55015237 0.68481259 0.05432663
0.55271491 0.68615820 0.56141874
0.31095142 0.30642401 0.20379710
0.31272123 0.31438112 0.68588781
0.30179666 0.81926117 0.18663642
0.30079900 0.80913613 0.70225503
0.79578458 0.30618834 0.18853410
0.80897274 0.30059280 0.68819252
0.81124067 0.80988488 0.19313046
0.81449672 0.80686383 0.69188561
0.31237243 0.18510765 0.31665457
0.30538808 0.19380237 0.79835775
0.29913917 0.70055447 0.29809594
0.30397417 0.68686593 0.80902569
0.80417443 0.20298533 0.31579177
0.80293624 0.18878126 0.80533074
0.81045898 0.69222485 0.31042724
0.81506326 0.68905488 0.80953162
0.19479699 0.19215212 0.19853819
0.18943635 0.20353645 0.68529964
0.18612386 0.69984998 0.18141026
0.18498805 0.69386813 0.69380651
0.68610751 0.18778300 0.20122939
0.68384476 0.18943416 0.69197918
0.69538542 0.69454712 0.19219702
0.69766530 0.69060337 0.69499010
0.19398618 0.30106933 0.31784922
0.19869858 0.31670631 0.80548125
0.18331893 0.81479178 0.30188484
0.18611403 0.80431270 0.81681557
0.68597623 0.31402900 0.31136456
0.69294073 0.30829681 0.80653383
0.69305047 0.80745096 0.30827164
0.69919669 0.80599102 0.81043314
0.99922773 0.99943615 0.00269931
0.00007867 0.00381909 0.50125879
0.00151954 0.49851571 0.00111709
0.99950331 0.50279504 0.50328675
0.49854261 0.99811990 0.99658007
0.49757849 0.99652393 0.50081841
0.49996590 0.49820279 0.00502905
0.50271202 0.49818776 0.50207310
0.99543804 0.25146706 0.25014108
0.00875840 0.25408913 0.75008041
0.99892447 0.75299030 0.25062009
0.99480677 0.75248111 0.74874067
0.49797302 0.25008407 0.25144152
0.50220364 0.25178504 0.75777897
0.49762247 0.75133265 0.25002092
0.49915036 0.75088257 0.74910533
0.24766389 0.00204973 0.25113818
0.25203180 0.00154245 0.74718039
0.25201532 0.50254497 0.24696469
0.24829855 0.50403169 0.74965222
0.74904353 0.00155282 0.25685192
0.74799314 0.99721401 0.75215886
0.75028239 0.50340094 0.25406165
0.74876611 0.49774301 0.75508229
0.24965695 0.25322333 0.99919165
0.25070869 0.25036715 0.49679321
0.25256971 0.74925799 0.00085678
0.24101642 0.74910055 0.49880055
0.74955809 0.24937402 0.00312504
0.74942636 0.24376017 0.50612439
0.75038418 0.74749985 0.00069350
0.75150296 0.75038285 0.50152407
0.99055921 0.99516820 0.25785627
0.99371222 0.01275395 0.74345927
0.99554573 0.51232164 0.25406748
0.98814290 0.49228391 0.74567750
0.50522067 0.00824951 0.24241091
0.50887262 0.99200476 0.75965254
0.50519817 0.49267489 0.24464482
0.50902559 0.50890427 0.75879510
0.25525518 0.01057979 0.00431506
0.25782344 0.99279144 0.49214100
0.24559662 0.49372447 0.99289228
0.26010116 0.50888626 0.50441282
0.74444481 0.99292466 0.01111391
0.74264898 0.99685792 0.49519934
0.75239654 0.50709494 0.01324536
0.74231702 0.50064407 0.49453623
0.00819464 0.24668336 0.00190703
0.00504219 0.24811025 0.49675241
0.00722976 0.74911795 0.98995570
0.00700522 0.75722749 0.51048624
0.49283846 0.25597010 0.99337560
0.49257882 0.25426010 0.51045327
0.48912328 0.74029496 0.99615234
0.49351722 0.74918700 0.50975507
0.25441877 0.24476593 0.26016517
0.25193370 0.25849966 0.74290981
0.24112079 0.75983044 0.24088777
0.24272577 0.74745737 0.75669325
0.74116505 0.25289724 0.25462055
0.74624368 0.24724023 0.74626401
0.75458542 0.75108649 0.25153144
0.75785475 0.74846777 0.75153792
Direct configuration=      3
0.99548822 0.89169279 0.96102925
0.99488146 0.08004265 0.41361158
0.02266437 0.48944560 0.11435007
0.00586038 0.45692844 0.61018416
0.58472702 0.99168402 0.92058842
0.58676447 0.92024987 0.50035855
0.50292906 0.57727698 0.08939155
0.58193119 0.58238960 0.49274382
0.26174621 0.61607917 0.22248112
0.24696864 0.41894710 0.67092556
0.24459519 0.92640470 0.16360274
0.36520526 0.01359152 0.73338925
0.83607726 0.50285773 0.33552628
0.82897616 0.58230005 0.74912519
0.83174530 0.99558850 0.33891489
0.75764993 0.98712892 0.86560101
0.10796409 0.23023336 0.27331059
0.08883208 0.16563814 0.74356062
0.08549128 0.67649023 0.24561253
0.08470745 0.75729725 0.67632679
0.57813807 0.16476067 0.24893853
0.59451709 0.25598088 0.68016070
0.47919377 0.72673979 0.14125475
0.49171778 0.83207625 0.83172883
0.36361864 0.51098988 0.21851287
0.24676161 0.58168890 0.83781261
0.25359741 0.08206909 0.33776726
0.25963935 0.11326721 0.72097393
0.75989147 0.39189075 0.26288909
0.77345780 0.48364274 0.86697826
0.66981747 0.00875402 0.17534793
0.72366572 0.98907874 0.63894906
0.88371054 0.23497666 0.23151422
0.92360477 0.32583955 0.75849665
0.01942388 0.73518606 0.36550723
0.91502725 0.74916355 0.83512277
0.42185938 0.33580634 0.25880419
0.51645001 0.13793411 0.77861888
0.48857000 0.76969387 0.36412237
0.50604911 0.66360737 0.67061384
0.98205441 0.39302365 0.46496559
0.04117499 0.39904899 0.00263616
0.00502730 0.08979594 0.58010110
0.00551942 0.96063309 0.11230491
0.41673484 0.42006746 0.51476060
0.50732636 0.41069816 0.08057199
0.42934910 0.90476230 0.50292146
0.57316243 0.99627521 0.07931181
0.02551726 0.27992909 0.14341785
0.08599088 0.33737230 0.75432275
0.91691476 0.67230594 0.25503907
0.07533169 0.74403968 0.82743529
0.47795696 0.23847690 0.13801121
0.58787483 0.25353484 0.83953599
0.52062582 0.63810939 0.27330142
0.49491913 0.67643103 0.83593920
0.33967376 0.24733070 0.42180683
0.22657942 0.23387582 0.88850037
0.16917918 0.84029730 0.49892898
0.26932964 0.63552264 0.01795067
0.74404137 0.15757284 0.58128088
0.76147872 0.22024185 0.11553802
0.75123554 0.66475811 0.58326651
0.75102229 0.66729599 0.91995049
0.96858388 0.25824928 0.36115710
0.92048199 0.17724252 0.74423855
0.91459685 0.83225621 0.26103034
0.91609636 0.75064404 0.66256917
0.51719805 0.23457993 0.36564402
0.48970277 0.36334995 0.76634073