Li192 P32 S160 I32
1.0
20.433000 0.000000 0.000000
0.000000 20.433000 0.000000
0.000000 0.000000 20.433000
Li I S P
192 32 160 32
Direct configuration=      1
0.09954175 0.00823135 0.40778505
0.13100885 0.11693619 0.77121193
0.12902920 0.50869235 0.33584821
0.14151316 0.72692608 0.91609148
0.65443034 0.03302309 0.33600298
0.64876723 0.03341233 0.82504271
0.65591260 0.51487192 0.34164666
0.62208739 0.52099914 0.88634820
0.36705125 0.49518117 0.35223293
0.37764586 0.49464931 0.88298913
0.34528811 0.85722285 0.48727711
0.37821069 0.99632987 0.91231487
0.77220226 0.31926336 0.38798331
0.79700019 0.45726495 0.85528535
0.89513015 0.97484889 0.41038263
0.86140371 0.00061448 0.84227530
0.40624556 0.01494462 0.11938741
0.37845315 0.13424854 0.74180469
0.38963023 0.51322696 0.08876443
0.41066277 0.51151075 0.60280329
0.82880571 0.12409075 0.03349858
0.89386820 0.03239479 0.60934988
0.86193926 0.50754437 0.11871573
0.76638180 0.65089596 0.61739775
0.16253009 0.50203568 0.15152848
0.14057567 0.47836079 0.64526936
0.11777287 0.99980259 0.12219890
0.14581186 0.99003305 0.66965513
0.61841933 0.49459654 0.10959485
0.61520900 0.49546064 0.62623473
0.59641797 0.90224018 0.00289586
0.60956178 0.98974878 0.59856794
0.29325378 0.15499718 0.04203933
0.34694113 0.00966387 0.65169346
0.37083629 0.63895852 0.00289787
0.36051395 0.65218949 0.52362074
0.91085014 0.22595988 0.14764108
0.87630475 0.10808827 0.50059624
0.77177630 0.64406124 0.08609162
0.88446547 0.61457904 0.51617550
0.34148799 0.34622335 0.49488765
0.34942964 0.35065217 0.98521704
0.41468953 0.75566914 0.34436447
0.34604150 0.84021070 0.99667681
0.87384729 0.36228243 0.48741952
0.88971569 0.36022850 0.99417670
0.84600813 0.84706023 0.49469792
0.77683732 0.90535865 0.85940757
0.13343550 0.34583516 0.00602089
0.24034725 0.39665092 0.64934164
0.11259833 0.89312916 0.03267913
0.14241114 0.89911973 0.52052763
0.63937440 0.35809234 0.99674512
0.61166279 0.39155233 0.50451507
0.75177820 0.84969704 0.09256987
0.61619573 0.88236336 0.49829732
0.14462148 0.15273720 0.48825744
0.13075633 0.00536943 0.90201643
0.11917611 0.58638743 0.48431893
0.23394321 0.63441630 0.89198415
0.62177763 0.12559611 0.48399804
0.51806584 0.09975783 0.89152875
0.63346247 0.61317308 0.48853882
0.58957559 0.60214018 0.98687823
0.01456394 0.40653376 0.09873524
0.14698228 0.35506534 0.50827751
0.01279087 0.85882149 0.13309929
0.00529644 0.90148932 0.60004913
0.52393035 0.37338986 0.11832179
0.50317267 0.36414497 0.63355804
0.63217265 0.77480210 0.07674865
0.49463125 0.87866110 0.61918189
0.48784694 0.39751519 0.39523334
0.47389093 0.40571195 0.86963927
0.46808765 0.92434046 0.39720777
0.49219895 0.87911502 0.88486414
0.83762143 0.47606457 0.35832572
0.95333980 0.45684561 0.88787245
0.99292416 0.84873751 0.37384906
0.88994178 0.90469393 0.96429791
0.02305570 0.11732090 0.38950200
0.00812227 0.14881823 0.86903633
0.00279051 0.58948915 0.39392850
0.11933542 0.64017667 0.76968507
0.50383611 0.08276048 0.38608573
0.59274996 0.17902792 0.78469828
0.52184293 0.61047343 0.41942360
0.53614644 0.65591048 0.81559395
0.46533873 0.12650421 0.05994957
0.48489866 0.10857079 0.61938956
0.49245850 0.62470546 0.13541821
0.48892833 0.64941104 0.62993704
0.97785570 0.08520902 0.08460600
0.98342774 0.14250842 0.61762419
0.90406468 0.59744736 0.01038863
0.86434449 0.50507674 0.63713905
0.06512910 0.25569018 0.12739725
0.14700382 0.26336157 0.61152935
0.15589195 0.76455585 0.08523224
0.14634156 0.77108428 0.61112580
0.60287745 0.25908106 0.15585093
0.64380865 0.26643616 0.58753930
0.64817943 0.87594302 0.24498302
0.62824163 0.76978693 0.61983957
0.41482093 0.23392409 0.14569003
0.35449929 0.15613857 0.51771475
0.39399743 0.74564448 0.14253362
0.38381937 0.72958073 0.65903709
0.90784336 0.13347781 0.24245930
0.87230629 0.24388733 0.61742325
0.87597600 0.72825062 0.13813919
0.00064484 0.64031922 0.65280374
0.40875852 0.25805247 0.34798891
0.38587437 0.28035289 0.88884954
0.35379639 0.89078640 0.25968808
0.38583600 0.76610478 0.86523315
0.97845807 0.39322410 0.39438501
0.97644745 0.31966705 0.85411732
0.87885405 0.75906179 0.35667697
0.85027823 0.76747919 0.88284726
0.11337077 0.23237933 0.35603873
0.12112833 0.10740014 0.99050394
0.13598265 0.73213544 0.40365454
0.12956269 0.52268760 0.87067653
0.61383079 0.24323763 0.36387141
0.64776037 0.25318186 0.90522331
0.59374791 0.73825543 0.37463864
0.66171774 0.73789423 0.89346573
0.37089442 0.39167541 0.25636294
0.34603191 0.38735557 0.77103285
0.30349362 0.97245818 0.38390126
0.37781794 0.87572769 0.76484223
0.86014770 0.38373163 0.26030780
0.87295380 0.36937238 0.74452825
0.85917482 0.87823739 0.27824530
0.00295445 0.85614021 0.87134156
0.40755209 0.10943327 0.22569418
0.40267279 0.24731264 0.66654361
0.37525246 0.64103438 0.23656685
0.35358707 0.57942088 0.74564185
0.87934689 0.99742119 0.12962437
0.88867009 0.13504190 0.73826864
0.98346716 0.65812196 0.15583244
0.85678713 0.59155747 0.74319258
0.15444644 0.11686742 0.26746836
0.14119636 0.23359966 0.88466933
0.10050394 0.67350248 0.27493091
0.99765487 0.64532763 0.85789970
0.60350478 0.14714400 0.24542456
0.73698493 0.12897112 0.87237261
0.61486026 0.64749517 0.26361467
0.65827876 0.59579459 0.75742397
0.12134705 0.36722693 0.24116169
0.01537275 0.40283437 0.58169699
0.11839038 0.87568931 0.25074701
0.09574566 0.86267457 0.73090140
0.64290373 0.38218619 0.22790637
0.62309494 0.36849109 0.73515008
0.53246330 0.86861425 0.16527099
0.60992858 0.87170004 0.74583110
0.26762079 0.38914836 0.35022176
0.25822954 0.41355709 0.87077323
0.27934456 0.81586370 0.38829290
0.26274406 0.89254232 0.86991145
0.88701889 0.25806614 0.35357340
0.82302641 0.27650128 0.87818121
0.75258878 0.86004988 0.38521722
0.88800060 0.87876135 0.73283018
0.22760027 0.32699246 0.11687254
0.08524212 0.34553627 0.72919472
0.25495358 0.89225288 0.14903387
0.23920258 0.87828550 0.63859695
0.74362725 0.35259977 0.09963829
0.73732849 0.39061677 0.62324555
0.64685841 0.99669294 0.15901253
0.74200225 0.89371386 0.62238656
0.27593959 0.10393659 0.18350909
0.26402118 0.12976326 0.64487870
0.26360631 0.61773375 0.12805040
0.26369321 0.60052678 0.64528155
0.77445920 0.10293132 0.16218014
0.76748730 0.16907246 0.61561236
0.82347178 0.59187685 0.23626926
0.89790074 0.74390437 0.67223491
0.25339126 0.13890079 0.39724590
0.24358294 0.11949273 0.87228738
0.24096735 0.61511397 0.38855025
0.08923634 0.59465683 0.98515924
0.73064365 0.14289819 0.38571001
0.62641491 0.13479063 0.98709024
0.74246269 0.64065132 0.38888949
0.73886046 0.61851258 0.89192811
0.00636349 0.99185854 0.99751222
0.00983541 0.01967170 0.50546159
0.00359783 0.49568255 0.99646834
0.99471502 0.50206446 0.48394626
0.49081277 0.98957884 0.99852830
0.50315082 0.01450367 0.50378222
0.50562356 0.49906503 0.98337209
0.51803870 0.51914910 0.51957697
0.98197896 0.23642718 0.25065723
0.98582008 0.22724973 0.75930182
0.98282133 0.74361663 0.25487435
0.00637160 0.75668177 0.77482626
0.51230584 0.25193642 0.24054560
0.47982766 0.26710829 0.75681467
0.49497686 0.75391774 0.23340731
0.49936159 0.76205207 0.74580731
0.24895357 0.99649109 0.24089820
0.25345023 0.01791492 0.75043917
0.26068568 0.49590288 0.25631875
0.23749115 0.49276011 0.75232789
0.74582685 0.00604290 0.24270368
0.75587437 0.99893198 0.73604032
0.75799174 0.48043989 0.24244559
0.75808438 0.51072406 0.73400922
0.23588743 0.25314690 0.98186926
0.24585490 0.25417815 0.51292093
0.25388702 0.73909367 0.98861942
0.25290701 0.75080307 0.49920397
0.74386366 0.25267593 0.98983218
0.74061856 0.23844931 0.50093151
0.76602705 0.74111891 0.00672961
0.74267412 0.74470829 0.49151489
0.13707210 0.12871322 0.38123470
0.13385740 0.11839060 0.87987316
0.12535076 0.62499699 0.37650470
0.11956039 0.62535111 0.88525842
0.62199194 0.12835880 0.36235874
0.61968583 0.13932024 0.88577927
0.62141700 0.62197539 0.37787240
0.61976113 0.62869547 0.87461559
0.37793050 0.37654579 0.36809902
0.36765140 0.38534934 0.87557734
0.37398420 0.86430313 0.37439715
0.38155280 0.88263376 0.88164153
0.87592285 0.36190605 0.37951766
0.86829269 0.37610681 0.87625007
0.87025617 0.86261390 0.38050956
0.87864536 0.88814630 0.85814273
0.37173091 0.12612589 0.12783163
0.37581752 0.14246930 0.62125336
0.38595835 0.62328673 0.11745673
0.38013045 0.61577540 0.63952542
0.88930918 0.11517447 0.13412300
0.87905639 0.13739314 0.62237862
0.88164856 0.61824510 0.12628595
0.87919489 0.62164714 0.63420047
0.12095958 0.35609677 0.13322551
0.12900159 0.37039423 0.62540411
0.12624486 0.88167808 0.13677150
0.12132924 0.87911636 0.62886144
0.63367675 0.37867800 0.11297387
0.62672933 0.37371819 0.61966150
0.63243250 0.87967515 0.11453737
0.60710272 0.87694460 0.61658821
0.04352279 0.42804342 0.29668594
0.05649814 0.42585169 0.80888848
0.06103371 0.93567014 0.31980645
0.06757933 0.94083842 0.81103208
0.55907965 0.44600494 0.31890467
0.56410686 0.45481917 0.80583630
0.56419589 0.95253696 0.31199528
0.56302346 0.95788818 0.82071461
0.42336438 0.04123563 0.31805855
0.43756614 0.06229253 0.82355111
0.44024707 0.56495822 0.30641170
0.44586773 0.56009955 0.81554091
0.94147046 0.04346584 0.32225286
0.95336776 0.06294082 0.81806939
0.92686093 0.53573937 0.30086901
0.95192846 0.56038876 0.81579455
0.44390401 0.44278211 0.18170676
0.43977085 0.45027315 0.69352917
0.44547947 0.93927377 0.18634946
0.43792568 0.95357887 0.69825539
0.93310105 0.42273694 0.17961973
0.94861682 0.44481193 0.69084440
0.94788451 0.93982836 0.19812122
0.94789567 0.95751223 0.68703423
0.05149339 0.05956202 0.20036426
0.06133695 0.06406410 0.69209847
0.04115790 0.55082579 0.18207373
0.06499807 0.56089504 0.69971656
0.53413404 0.07197015 0.18981591
0.55283436 0.07461057 0.70239219
0.57475571 0.55615684 0.20394246
0.55517683 0.57421455 0.70008668
0.32253133 0.06192042 0.46500738
0.30942606 0.07432141 0.95373643
0.32621563 0.54516457 0.44483638
0.30287549 0.54881947 0.94437740
0.80680117 0.05223156 0.42709727
0.80671433 0.06771057 0.94031375
0.81499486 0.55846507 0.43243189
0.82297630 0.54769255 0.92288004
0.29821272 0.42805236 0.05602325
0.31361098 0.43495037 0.55957827
0.32080294 0.94825658 0.06724331
0.30181563 0.93640055 0.57243821
0.81313538 0.43228978 0.04306606
0.80921729 0.43039664 0.54493316
0.81125263 0.94491850 0.04080052
0.81764921 0.94590098 0.55234413
0.20080242 0.43306402 0.44948575
0.17240497 0.43868290 0.94679446
0.21099118 0.94910089 0.43569327
0.20834713 0.93729103 0.96543837
0.69519384 0.43908278 0.42850048
0.70342159 0.43918804 0.92421309
0.68845502 0.94769284 0.44985615
0.68912748 0.95957211 0.91831856
0.20175179 0.05829963 0.07555652
0.19414995 0.04896793 0.56770975
0.18728865 0.56025856 0.05204980
0.20766789 0.56261200 0.55194429
0.70388392 0.05736311 0.05668067
0.70435831 0.05422966 0.56271925
0.70189526 0.55353349 0.04371421
0.70497115 0.55207623 0.55462555
0.44854051 0.30827436 0.06071151
0.42560910 0.30120745 0.56078489
0.44914658 0.80961884 0.06978075
0.42511470 0.79901468 0.56148609
0.95327349 0.30145412 0.07470779
0.94555844 0.31118845 0.55856623
0.93042785 0.80466294 0.05884198
0.94897902 0.79933670 0.57373672
0.06189120 0.31144567 0.44025992
0.04652056 0.29108571 0.93675975
0.06430935 0.81119970 0.45620456
0.06152574 0.80950985 0.96755901
0.55860022 0.31139925 0.44677109
0.54809860 0.31406958 0.92893540
0.53391195 0.81406448 0.43710411
0.56929035 0.80399190 0.95222430
0.43592097 0.19904189 0.43873569
0.44160972 0.18927655 0.94424957
0.43878649 0.68994092 0.44829194
0.44036165 0.70089971 0.94303278
0.94820926 0.19551551 0.43727253
0.91950649 0.18523354 0.95598873
0.95309488 0.69699870 0.45014446
0.92843358 0.69850822 0.94073670
0.04948215 0.17266321 0.04894936
0.06114722 0.20351077 0.56166351
0.05460078 0.69060967 0.05729191
0.07503975 0.68673067 0.56181600
0.56382907 0.20421101 0.04949029
0.54485772 0.19478436 0.56513381
0.55440807 0.68340919 0.06300564
0.56414286 0.70159858 0.55541611
0.30810428 0.31163357 0.19756742
0.29779774 0.31044423 0.69344973
0.31615294 0.79672752 0.20408469
0.31008935 0.80035732 0.69229510
0.81456896 0.29547699 0.18093147
0.79460280 0.30356781 0.67457083
0.78898020 0.81966585 0.20076819
0.80104750 0.80757819 0.68332220
0.31506251 0.19182573 0.30348636
0.30094360 0.20186147 0.82399198
0.30566593 0.70449290 0.32836721
0.32178864 0.69489426 0.81007614
0.80479583 0.18455656 0.30485178
0.80461935 0.19792211 0.79840896
0.79899944 0.68973025 0.29948494
0.79434443 0.68063241 0.80639073
0.20097622 0.18991320 0.18536041
0.17830348 0.20030225 0.70999364
0.19987674 0.69820398 0.19603379
0.19754308 0.68761514 0.69353374
0.69385804 0.18707675 0.17786138
0.68349187 0.19495015 0.69897586
0.68771452 0.68722699 0.17696309
0.68317589 0.69254992 0.69339218
0.20288263 0.30483359 0.31839172
0.18242280 0.31406838 0.81132633
0.18658866 0.80373794 0.31310862
0.19257956 0.80540251 0.81220860
0.69638142 0.30238855 0.29662827
0.70681067 0.32282428 0.81054721
0.67589856 0.78917185 0.31913753
0.69328619 0.81145866 0.80834090
0.00352935 0.99102464 0.26195316
0.01101802 0.00435573 0.75924159
0.98625738 0.48691664 0.23802825
0.00444897 0.49422344 0.75256039
0.49369080 0.00254553 0.25035488
0.50010933 0.01063466 0.76489916
0.50075050 0.50009272 0.25298935
0.50567808 0.50468034 0.74422996
0.26153169 0.00771526 0.01441447
0.25332380 0.00038322 0.50818077
0.24108192 0.48710766 0.00335926
0.26178401 0.49606583 0.50012000
0.74894251 0.00289926 0.98544229
0.75339338 0.00324024 0.49596099
0.76370911 0.49498847 0.98384521
0.75689467 0.49769163 0.48831827
0.99022495 0.23737260 0.00288891
0.00398403 0.25395287 0.49240488
0.99053405 0.75079950 0.00729014
0.00964299 0.74600251 0.51205202
0.50172559 0.25580216 0.99289609
0.49276695 0.25345608 0.49925498
0.49823168 0.74984754 0.00631856
0.49263862 0.75027779 0.50040182
0.25095645 0.25242498 0.24593378
0.24772400 0.25285229 0.76320826
0.25111895 0.74864027 0.26066459
0.25262957 0.75014588 0.75507710
0.75476050 0.23988563 0.24015195
0.74259554 0.25807100 0.74380857
0.73578136 0.74402291 0.24779231
0.74650801 0.75139469 0.74665157
Direct configuration=      2
0.10621408 0.00587411 0.40089093
0.14020000 0.09813688 0.77417098
0.14820402 0.53740925 0.33484945
0.12569524 0.74266305 0.89331982
0.63706907 0.02245984 0.36108563
0.64906802 0.01047866 0.83927064
0.65911950 0.50566745 0.35294810
0.59498264 0.52215350 0.87119659
0.35807894 0.48648255 0.35369143
0.38882917 0.49017555 0.90952362
0.38774826 0.89372352 0.49499231
0.39669841 0.98544706 0.88584978
0.76805894 0.35315945 0.38364626
0.79350748 0.43463108 0.85287922
0.89716073 0.97859387 0.41801046
0.87077341 0.97526427 0.86602554
0.40223126 0.00093522 0.11808672
0.38684668 0.15187119 0.74198420
0.39307290 0.50931290 0.11202852
0.39267387 0.52309979 0.58004308
0.84816505 0.14245236 0.01802556
0.86181696 0.00529164 0.64969440
0.84815958 0.50476469 0.12785777
0.75353471 0.64860113 0.60836333
0.12744631 0.49490662 0.13562164
0.14295884 0.50116203 0.63751979
0.13505466 0.95785797 0.20376416
0.15240087 0.96326517 0.67071684
0.66916700 0.48639923 0.12838863
0.61990079 0.48552353 0.62072809
0.60649503 0.90553549 0.01139234
0.60198976 0.99726191 0.59734716
0.32366256 0.14172472 0.01664209
0.34088049 0.00438586 0.66102744
0.35529443 0.63598821 0.01657561
0.34779612 0.65846723 0.51722562
0.90111141 0.22036358 0.14338679
0.89337771 0.09229767 0.51921255
0.74609893 0.64017718 0.10541691
0.89969027 0.60527091 0.51705035
0.36470033 0.36742891 0.49133516
0.34398231 0.36221617 0.98458540
0.39896836 0.76841047 0.36327692
0.35708095 0.85391353 0.98948868
0.86416735 0.34726686 0.47841549
0.90438881 0.37983474 0.98692815
0.86960016 0.84293747 0.50025705
0.74800083 0.87618417 0.87940317
0.12364437 0.33999430 0.02439455
0.22713889 0.39956157 0.66387014
0.10912967 0.88131107 0.01866077
0.10681333 0.89747420 0.51668827
0.63229360 0.36251796 0.00125937
0.61239569 0.37390989 0.50102495
0.74179621 0.86900184 0.10494062
0.63684805 0.88361459 0.51914685
0.13704325 0.14377078 0.48914106
0.08678179 0.99681947 0.90181949
0.09983532 0.60290288 0.46970609
0.24368591 0.64237025 0.88593471
0.65388538 0.13095148 0.48335074
0.52357178 0.11083156 0.89911517
0.61234456 0.60484879 0.49734532
0.59838972 0.59902312 0.98776647
0.00038390 0.39837391 0.10779779
0.14087583 0.38078313 0.49744090
0.00935807 0.86539575 0.13224122
0.01301046 0.90992143 0.60452934
0.52185214 0.36246433 0.13861924
0.50747078 0.35672395 0.65170172
0.64226470 0.77291578 0.13271610
0.50359989 0.88935507 0.61149831
0.47702152 0.40081816 0.38990697
0.49160932 0.38757130 0.88361777
0.46417583 0.92346216 0.38592370
0.47788581 0.85227863 0.84892688
0.84036913 0.48371089 0.36429863
0.92206474 0.47757242 0.89685201
0.99401394 0.84809144 0.36233741
0.91293668 0.91107308 0.98751655
0.00636086 0.14868235 0.36906373
0.01366418 0.11155136 0.87004443
0.00587872 0.63683493 0.35013164
0.09995214 0.64410288 0.75458679
0.51647806 0.10663040 0.40014643
0.58454778 0.15978173 0.75942015
0.51958941 0.58966289 0.40108772
0.51674992 0.65604496 0.86525123
0.46903219 0.11820405 0.04579145
0.47752253 0.12253017 0.61688316
0.49228027 0.63677473 0.12082726
0.48867614 0.60911540 0.59794032
0.99031829 0.10241189 0.13997551
0.98852012 0.13983177 0.62033292
0.90835615 0.58931844 0.01258151
0.88122147 0.51307532 0.63514794
0.10303586 0.26489950 0.16603280
0.15252692 0.27554548 0.61874879
0.13561578 0.75470620 0.09529157
0.13909955 0.75132366 0.60550558
0.63059752 0.23909538 0.11923893
0.64292578 0.27472760 0.60433578
0.66455244 0.90573229 0.24022510
0.58590033 0.77488997 0.64140265
0.39315180 0.23625751 0.12674832
0.34395435 0.13897831 0.52698399
0.37427835 0.73982068 0.14889013
0.38657313 0.73581383 0.65343881
0.86406539 0.10917739 0.24173721
0.86206075 0.24473178 0.60971963
0.86840080 0.72394641 0.10978411
0.98665345 0.62404457 0.64018314
0.41960019 0.26014735 0.35538865
0.39377079 0.26899348 0.86305912
0.33781135 0.87976533 0.27785165
0.36593218 0.75210862 0.88051745
0.98082357 0.40334369 0.39206442
0.98793723 0.33775983 0.84777573
0.85895220 0.74537784 0.38404407
0.85900355 0.74881338 0.90268445
0.11457125 0.25017488 0.33881940
0.13292413 0.10844727 0.98993295
0.13642408 0.74633739 0.39738844
0.14594271 0.52524246 0.83885642
0.62113163 0.24562110 0.37284006
0.61909018 0.24530924 0.84273191
0.63056376 0.73469862 0.40951771
0.63907759 0.73109104 0.90526988
0.37738842 0.38042490 0.25948113
0.37749261 0.40095923 0.76362196
0.34364704 0.00131812 0.36771878
0.36457860 0.88462734 0.77061715
0.87153820 0.37647503 0.25059512
0.87710866 0.37417192 0.76293883
0.86168989 0.86718933 0.28169011
0.97737554 0.86010771 0.85005140
0.44232875 0.14234714 0.21726541
0.36452958 0.25085216 0.62505265
0.38676597 0.62233151 0.24354646
0.36414475 0.58367709 0.72849596
0.86729410 0.99471265 0.15283574
0.90021819 0.15245085 0.74604895
0.97884836 0.63549285 0.13445783
0.84324575 0.61153066 0.74534258
0.16123080 0.11202927 0.27571269
0.12859426 0.22027144 0.87705721
0.10238601 0.66465313 0.25131558
0.01357902 0.63673890 0.85874445
0.60573653 0.15102152 0.27538949
0.73927234 0.14267977 0.87812030
0.59128003 0.64995418 0.27801075
0.64867722 0.61442744 0.76174631
0.14274363 0.38406014 0.24982775
0.01334223 0.43220475 0.58913418
0.08588950 0.83986258 0.24286723
0.11721847 0.84235002 0.72424784
0.65797281 0.38168532 0.23252771
0.65149547 0.38439484 0.73108841
0.51807857 0.86731786 0.13021763
0.60058424 0.86090197 0.74997099
0.26939495 0.38129878 0.36507580
0.25581296 0.38180519 0.87880587
0.25813684 0.84403114 0.38788888
0.25849817 0.89207742 0.88702932
0.90602867 0.25092768 0.36061147
0.87737406 0.25534859 0.88357866
0.75754888 0.85227199 0.38402135
0.85594268 0.88093870 0.76566693
0.24141849 0.35266404 0.09765400
0.06017705 0.37924481 0.70220063
0.23469872 0.88676691 0.13053472
0.25492866 0.86608674 0.59143476
0.74300340 0.34560396 0.09309966
0.74211321 0.40507313 0.63286459
0.61278070 0.99292725 0.12057063
0.72967373 0.89965623 0.65200407
0.28848532 0.10522675 0.15534940
0.25306897 0.12091302 0.66632072
0.27392518 0.62804882 0.11763900
0.25120289 0.61705419 0.64410500
0.75764613 0.10178794 0.14411371
0.75318546 0.10390690 0.64328893
0.84713763 0.61807415 0.22441840
0.89002546 0.73831734 0.65570006
0.24375215 0.17341307 0.39690724
0.24624099 0.10265217 0.87743836
0.24551510 0.63523924 0.37536645
0.11991435 0.60671932 0.99129564
0.75004093 0.12693656 0.37712300
0.64549699 0.16075632 0.96910081
0.72856139 0.62640054 0.39563375
0.73745487 0.63781391 0.90495552
0.01673304 0.99286728 0.01278144
0.00514655 0.01961541 0.50337616
0.00746451 0.48763693 0.00409734
0.01020881 0.51688955 0.48659463
0.49156184 0.99250314 0.99868548
0.49835645 0.01803784 0.50492581
0.49917126 0.50006988 0.98844042
0.52674029 0.49502492 0.50212897
0.98907024 0.24311336 0.24520660
0.98995554 0.24725845 0.74924198
0.97523102 0.74918470 0.26103655
0.01271005 0.74887015 0.76803491
0.50546577 0.25978792 0.24250146
0.49340541 0.27038568 0.75256647
0.49977773 0.76167519 0.23463407
0.50643469 0.77055765 0.74904414
0.26194429 0.99875708 0.24489187
0.25563002 0.00509732 0.75730999
0.23993030 0.48256470 0.25941575
0.24864278 0.49440943 0.75008922
0.75028119 0.00907987 0.25216661
0.76368407 0.00481642 0.74767633
0.76002950 0.48672788 0.24005119
0.75854170 0.49985047 0.72932044
0.23009639 0.25635617 0.99081603
0.24433481 0.25542190 0.50023282
0.24907438 0.73039864 0.99308890
0.26028277 0.75627594 0.50830256
0.74017100 0.24317979 0.98515306
0.74587506 0.24386081 0.49679947
0.76267266 0.75378539 0.00484389
0.73735835 0.74777292 0.48918613
0.12747768 0.13818868 0.37532635
0.12295542 0.11187460 0.88039651
0.12559156 0.63967208 0.36769644
0.12504923 0.62376207 0.87936400
0.62700302 0.12973653 0.38040501
0.62323072 0.13085245 0.85452191
0.61806764 0.61622824 0.38162854
0.62913573 0.62533719 0.87956098
0.37515790 0.38103145 0.37292175
0.37594672 0.37540549 0.87274612
0.36356530 0.89239433 0.37887067
0.37285384 0.86042328 0.87420447
0.87472225 0.36833763 0.36319821
0.88300033 0.37335441 0.87035293
0.87684811 0.86164897 0.38503003
0.87213438 0.87061380 0.87661314
0.38513126 0.12722306 0.12147280
0.36701108 0.13098902 0.63726859
0.37927866 0.61531676 0.12706468
0.37410134 0.62961539 0.62248045
0.87098865 0.10725251 0.12467797
0.87759062 0.11795700 0.62689044
0.85702695 0.61363498 0.11851802
0.87548506 0.62844530 0.63121804
0.12600866 0.36818825 0.12944174
0.12452773 0.39097308 0.61593284
0.12157747 0.86849098 0.13439774
0.12740879 0.86939488 0.62146056
0.63201845 0.36723590 0.11719587
0.62225701 0.38196589 0.62388595
0.62351673 0.88267295 0.12458415
0.61601321 0.89275351 0.63345222
0.05785449 0.45215866 0.30364684
0.05102558 0.44178645 0.81715223
0.06834557 0.93459258 0.31515255
0.06559266 0.92926386 0.80105461
0.56434095 0.43229086 0.30881685
0.55489792 0.43261197 0.80199602
0.56604764 0.93273205 0.31314933
0.55122451 0.95498453 0.82055419
0.45007772 0.05280220 0.32558900
0.44608522 0.07288189 0.81616605
0.45434228 0.55292534 0.30343230
0.44587459 0.55131707 0.80314720
0.94725083 0.05625248 0.32282753
0.93710523 0.04907119 0.80163952
0.93549150 0.56399744 0.29794261
0.93759223 0.55527775 0.80153949
0.45325374 0.44635306 0.19117769
0.44552897 0.45162068 0.67630633
0.44450287 0.93870038 0.20280799
0.43758897 0.93912808 0.71003358
0.94186076 0.44104152 0.19134615
0.94497050 0.42941167 0.68843506
0.95543148 0.94118344 0.20623195
0.94354034 0.93615945 0.69370473
0.07250006 0.06200012 0.21118556
0.06574615 0.04922172 0.69248852
0.05124484 0.56484416 0.18572452
0.05755104 0.55316695 0.69369620
0.54659126 0.06315419 0.20133173
0.55166591 0.06284251 0.69261364
0.57421024 0.55714364 0.18551970
0.56917491 0.56817674 0.69104932
0.29193534 0.07624732 0.45016502
0.32166611 0.03934408 0.93668583
0.31686888 0.56141236 0.44671298
0.29229730 0.54994991 0.94362962
0.81651119 0.05737951 0.44182979
0.81361311 0.06109271 0.94143614
0.80598592 0.56885851 0.43945144
0.82329062 0.53664093 0.93628501
0.30562936 0.44688008 0.07262113
0.30276459 0.44028205 0.55978707
0.30543893 0.92447083 0.05672160
0.31253335 0.96509351 0.55662794
0.80146124 0.43118248 0.04978618
0.83470687 0.44374855 0.54714109
0.81721109 0.93763899 0.04940659
0.81810824 0.93599335 0.55991128
0.19472235 0.46079737 0.43766690
0.18092559 0.43401899 0.95859169
0.19497419 0.94471373 0.46097050
0.18557852 0.95162249 0.95071608
0.70846823 0.43806079 0.43811781
0.68759651 0.44352843 0.92988513
0.70416632 0.92928076 0.44150029
0.69049573 0.94403732 0.94616771
0.21466249 0.06077176 0.06274118
0.18863831 0.06883939 0.57503038
0.18427008 0.55416468 0.07194059
0.19214232 0.57245288 0.55228768
0.69574268 0.06539416 0.05204531
0.69256722 0.04656563 0.54615044
0.69855067 0.56020187 0.04139583
0.69811882 0.54777631 0.55987718
0.44370627 0.31673990 0.05403682
0.44810573 0.31327927 0.55534724
0.43644731 0.80347668 0.04852989
0.43005192 0.80470813 0.56971938
0.94035155 0.28988805 0.05684638
0.94990911 0.32217726 0.55359278
0.92673393 0.81565252 0.06840849
0.95224572 0.80308136 0.58240352
0.05124817 0.30747960 0.42320415
0.04632723 0.28550758 0.93357880
0.05064146 0.80539280 0.44626348
0.04009029 0.82132359 0.94880427
0.54372890 0.30854037 0.42485168
0.55881406 0.29760015 0.93860410
0.53445084 0.81065152 0.44385722
0.55352732 0.80633188 0.93923597
0.42568949 0.19230960 0.45867503
0.42945214 0.19148772 0.94846095
0.42303479 0.69209674 0.44234211
0.44654768 0.67722567 0.94314976
0.93913995 0.19370939 0.45226558
0.94862948 0.17539216 0.94347745
0.94002053 0.68849920 0.44954169
0.93859790 0.69054616 0.95783549
0.07126510 0.18187888 0.06167291
0.06672399 0.20544119 0.55536599
0.04304214 0.70284585 0.07292090
0.06407349 0.68121003 0.55348303
0.55333749 0.18816092 0.04390674
0.56321963 0.19642572 0.55490214
0.56086195 0.69205102 0.05585983
0.55005562 0.69637011 0.55526739
0.31243614 0.30488239 0.17852505
0.29082986 0.31023944 0.68967434
0.30160544 0.81510609 0.18266444
0.30407295 0.81093619 0.70003599
0.81370553 0.28940879 0.18409579
0.80714229 0.30925128 0.68258739
0.80314246 0.79603151 0.19793639
0.79119825 0.80611432 0.69955790
0.32316731 0.18936218 0.28575679
0.30100843 0.19343464 0.81999648
0.31140125 0.69720508 0.28888226
0.30337036 0.67664596 0.80573143
0.80862785 0.18563497 0.31473233
0.81338428 0.18978538 0.79597843
0.79161173 0.68483454 0.30916927
0.79557028 0.68957337 0.81621184
0.19071416 0.19047507 0.18887729
0.17664456 0.18768310 0.70192503
0.18950610 0.69291215 0.18241635
0.17808378 0.69810337 0.69852198
0.68667563 0.18541164 0.19922953
0.67592962 0.20253110 0.69579933
0.68276527 0.68209294 0.18984291
0.67955288 0.69205346 0.69366340
0.20836304 0.30421890 0.30467485
0.17513673 0.30883830 0.80650694
0.19320909 0.80428395 0.29596529
0.19810527 0.80493833 0.82470450
0.69363959 0.30073153 0.29727750
0.70200378 0.31526436 0.81218140
0.67993890 0.80049844 0.30351086
0.67055344 0.79891530 0.82097527
0.00961878 0.00679811 0.26204178
0.00208123 0.99400083 0.74813962
0.99605960 0.50389931 0.24479901
0.99854164 0.49970715 0.75283462
0.50525892 0.99309985 0.26237852
0.49589356 0.00984827 0.75079950
0.51651578 0.49665897 0.24553097
0.50397108 0.50168837 0.74412462
0.25891496 0.99487440 0.00300581
0.24641522 0.01503335 0.50961394
0.23949831 0.49586472 0.01234349
0.25326393 0.50691370 0.50235932
0.75378175 0.00165899 0.00029372
0.75995534 0.98963798 0.49873295
0.74591768 0.49042547 0.98800927
0.76155659 0.49788173 0.49854417
0.00270346 0.23329567 0.00518282
0.00454796 0.26051640 0.50076418
0.98821910 0.75852380 0.00663030
0.99969757 0.74383559 0.50995551
0.49061255 0.25049782 0.99704549
0.50116603 0.25066998 0.50039849
0.50309918 0.74845860 0.99972794
0.48241612 0.75095589 0.50208645
0.26224526 0.24576908 0.24136306
0.23910396 0.25153660 0.75343221
0.24732956 0.75159513 0.23692827
0.24506940 0.74622277 0.75767505
0.75330117 0.24235295 0.24827158
0.74895990 0.25275414 0.75119493
0.73605697 0.74194234 0.24647221
0.73184945 0.74440954 0.76207846
Direct configuration=      3
0.08907905 0.02631186 0.40766386
0.11299878 0.14131149 0.76329680
0.12809877 0.53078581 0.35630857
0.11986789 0.73000268 0.87483100
0.63228528 0.00381061 0.37105296
0.63542078 0.01335009 0.87027881
0.62901160 0.50955079 0.37534778
0.59282552 0.50293816 0.89429710
0.35329450 0.49302212 0.35651096
0.37371147 0.49726808 0.87404138
0.36851651 0.88912917 0.49175314
0.41372813 0.97308036 0.89946096
0.75961122 0.37578845 0.37837491
0.77857557 0.36150902 0.85764618
0.89386849 0.97730672 0.39934482
0.87795963 0.98979355 0.87772269
0.38666152 0.00026756 0.11535701
0.41080145 0.16336220 0.74566703
0.40176951 0.50595053 0.09153948
0.36633474 0.50919251 0.61550790
0.85371179 0.14056239 0.02099948
0.87167264 0.99532904 0.64427391
0.84742916 0.51186038 0.13904361
0.76803522 0.66910979 0.58152526
0.11309592 0.48225324 0.11257029
0.12830397 0.50090427 0.62766227
0.12253411 0.94992687 0.21192776
0.14926835 0.99335984 0.65024274
0.64221667 0.47775073 0.14303338
0.61561510 0.48565894 0.60097058
0.60007037 0.89346902 0.00581761
0.60732173 0.97834401 0.58802386
0.30771721 0.13916322 0.01375859
0.39967204 0.04257197 0.60406144
0.36303112 0.65909823 0.00974387
0.35961723 0.66167119 0.51484057
0.88046696 0.24498607 0.15160628
0.89569426 0.10301606 0.51605770
0.74456700 0.62950609 0.12131363
0.89567168 0.59197947 0.51143233
0.34742416 0.36950453 0.48202134
0.35797761 0.33990381 0.99922317
0.40279739 0.76558662 0.35198302
0.35055328 0.82502382 0.98249958
0.85717486 0.37176509 0.48332576
0.87444898 0.39103090 0.98064975
0.85295167 0.85821941 0.48405928
0.74162343 0.86057649 0.89687993
0.11053403 0.39454795 0.01796010
0.23582902 0.39179416 0.64406416
0.11417470 0.89818581 0.01687321
0.09695688 0.91894541 0.52483905
0.58647414 0.39537195 0.02220667
0.61348321 0.37624626 0.50419218
0.72437613 0.85788695 0.10110298
0.64574741 0.84946026 0.51483288
0.12798916 0.16437721 0.48162736
0.12050745 0.00186584 0.87011039
0.11268120 0.62078503 0.48892698
0.22931492 0.63343742 0.89648451
0.65248525 0.12294574 0.49384179
0.50756515 0.10194626 0.88998175
0.61774911 0.61984660 0.50048015
0.59598012 0.60075448 0.99588471
0.99122674 0.34567683 0.14424637
0.11904389 0.40660755 0.51235283
0.00969838 0.90592578 0.12915949
0.01801156 0.82981942 0.63623405
0.52326940 0.34670113 0.13751504
0.52946226 0.36106075 0.65577275