Li192 P32 S160 I32
1.0
20.433000 0.000000 0.000000
0.000000 20.433000 0.000000
0.000000 0.000000 20.433000
Li I S P
192 32 160 32
Direct configuration=      1
0.11322011 0.01061196 0.39612304
0.13527005 0.11092646 0.76161013
0.13988369 0.51046211 0.35439546
0.14117977 0.73922441 0.90052835
0.65016367 0.01339039 0.35020110
0.63730829 0.01335882 0.85760387
0.64821073 0.51616314 0.35191421
0.61578999 0.51038491 0.88551472
0.36607180 0.48971812 0.36706035
0.39069405 0.49019955 0.89994751
0.36122993 0.85985133 0.48784688
0.38814283 0.98981237 0.89539589
0.75772200 0.35677937 0.39232173
0.79645100 0.45709524 0.86443182
0.89542311 0.98041962 0.40489315
0.86572284 0.99129165 0.86279651
0.39170357 0.00909804 0.10398939
0.38128557 0.13399203 0.74285742
0.39338445 0.51465857 0.10130944
0.40170593 0.51626678 0.59780936
0.85071724 0.14978937 0.01613184
0.85437595 0.01645211 0.64422024
0.88793827 0.51008331 0.11538078
0.76543923 0.64885747 0.60538288
0.14982334 0.48389761 0.15122539
0.14329303 0.48911282 0.64525618
0.10475164 0.98711972 0.11436887
0.15026044 0.98416773 0.65022251
0.65555918 0.48821208 0.14375498
0.60892210 0.49025048 0.61931074
0.60037301 0.90146986 0.01299757
0.61518616 0.99071616 0.61488798
0.34919490 0.15402818 0.01413111
0.34955304 0.01698671 0.64946449
0.36441971 0.64439740 0.01110173
0.35110168 0.65340617 0.51662068
0.89824155 0.23721966 0.14665063
0.86043909 0.14494992 0.51165950
0.76441974 0.64539627 0.09886312
0.88986359 0.60814118 0.51423048
0.34906294 0.35103848 0.48468227
0.36111769 0.35556814 0.99065964
0.40244627 0.76415528 0.34915526
0.34598503 0.84745628 0.98336552
0.85531410 0.35173679 0.49128820
0.88422148 0.38462112 0.98895537
0.85788571 0.84812110 0.49135806
0.76029764 0.88689030 0.86490457
0.12846161 0.37147824 0.01401219
0.24185178 0.38997603 0.64419256
0.11005847 0.89005834 0.01335402
0.12077665 0.88423355 0.50904992
0.63847005 0.36428580 0.01083759
0.60604655 0.39367064 0.51323720
0.74022008 0.86077809 0.10214699
0.63788385 0.86645660 0.51182118
0.13711807 0.13942510 0.49104489
0.10361283 0.01020900 0.88911245
0.10989541 0.59969379 0.48792957
0.23734258 0.63984243 0.89217357
0.61322957 0.10952160 0.48964524
0.51657811 0.10759182 0.90049463
0.60901264 0.60539203 0.49035650
0.59870918 0.60556745 0.98857134
0.01398981 0.39438906 0.11085777
0.14905581 0.35837108 0.51244494
0.01490066 0.84906879 0.15131384
0.01318737 0.89724483 0.60403301
0.51959600 0.40192243 0.10166877
0.50892602 0.35862171 0.63981604
0.63844313 0.76077421 0.10553909
0.50957154 0.89245368 0.60431646
0.48593853 0.39829547 0.39869091
0.48970908 0.39082147 0.89197511
0.48417883 0.90326284 0.39339682
0.48613978 0.88973848 0.89372455
0.85871551 0.48790286 0.37117131
0.96025358 0.46055967 0.88157171
0.98759635 0.86031184 0.36104893
0.90390477 0.89968387 0.98682877
0.01193497 0.11106428 0.39177271
0.01441860 0.14410441 0.86030670
0.00916316 0.61078559 0.38701653
0.11234240 0.65105832 0.76344568
0.51138364 0.09917718 0.39196869
0.59722411 0.15402938 0.76324733
0.50849558 0.60723017 0.39191162
0.51711010 0.64885738 0.84784536
0.49124361 0.10726493 0.09887084
0.48657772 0.10495500 0.60903339
0.48754648 0.63819404 0.14390838
0.48872899 0.64389680 0.64494092
0.98496929 0.10106221 0.10525623
0.98678671 0.09855910 0.59823167
0.89688030 0.60841572 0.01257576
0.85806444 0.51249060 0.63972469
0.10837084 0.25726801 0.14248878
0.13158289 0.26200971 0.62151952
0.14723172 0.76267466 0.10619842
0.13685138 0.76085615 0.60603008
0.60059852 0.26496615 0.14474636
0.64949901 0.26695083 0.59867734
0.64112361 0.88248833 0.23485543
0.63936112 0.76295783 0.61129335
0.39859846 0.23692912 0.14085442
0.36783425 0.13832781 0.51449588
0.38910405 0.73846951 0.14420488
0.38477659 0.73884640 0.64856788
0.89074425 0.13139881 0.24247732
0.89699082 0.24185682 0.63763647
0.88750571 0.73761573 0.14375531
0.98903684 0.60880870 0.61602904
0.39760459 0.26234244 0.35452522
0.40082961 0.26795600 0.85194142
0.36054646 0.88593560 0.25926060
0.39021229 0.76343023 0.85833557
0.98320095 0.39641077 0.40289918
0.95839760 0.29469669 0.87335261
0.89016488 0.75745492 0.35038029
0.85213060 0.76648160 0.90114398
0.10144096 0.23325656 0.35316583
0.11736482 0.11380856 0.99009077
0.14440000 0.73318617 0.39997470
0.14806647 0.51597247 0.84888385
0.60351594 0.23596952 0.36287450
0.64277863 0.24118959 0.88401782
0.62627531 0.73951968 0.39109199
0.64221970 0.73872214 0.89615647
0.37829808 0.37828762 0.25885288
0.35604222 0.40138808 0.76669010
0.34602525 0.98723671 0.35804973
0.39433237 0.86753360 0.76200887
0.85225379 0.39117445 0.26504098
0.89156084 0.36428239 0.75990872
0.85023333 0.89799847 0.26685418
0.98591205 0.85046164 0.85300213
0.39681807 0.13267427 0.23699712
0.39683508 0.24020594 0.64352441
0.35192404 0.60366394 0.23462442
0.36002616 0.60226256 0.74028058
0.86490874 0.00972692 0.13793607
0.89519032 0.14168294 0.73803881
0.98816180 0.63655174 0.14507727
0.85598438 0.61015891 0.74176025
0.14588886 0.10021890 0.26626021
0.14864049 0.23581483 0.89506220
0.10050354 0.64864871 0.26578728
0.01000030 0.64716609 0.85844829
0.60620967 0.13589887 0.26179291
0.74064510 0.11282418 0.85014391
0.60384766 0.64857808 0.26420429
0.65265457 0.60320164 0.76574112
0.10510366 0.35866378 0.24280886
0.01854863 0.40357689 0.59843204
0.14233788 0.89171288 0.24033589
0.10466832 0.84852899 0.73369345
0.63621979 0.38320289 0.24016197
0.60971553 0.35499432 0.73927755
0.51440340 0.85145583 0.14408978
0.59728549 0.85139546 0.73619153
0.26130127 0.38690220 0.35640370
0.26263214 0.36070278 0.89075778
0.26229819 0.85182567 0.38879129
0.26210251 0.89962244 0.84618068
0.89778420 0.26556709 0.35038540
0.79818383 0.29637675 0.88158570
0.75954532 0.85894164 0.38729402
0.86806092 0.88002026 0.76178755
0.23798312 0.35149094 0.11087821
0.09959166 0.35488333 0.73740785
0.23750087 0.89557657 0.13618866
0.23988632 0.86205608 0.60905967
0.74006782 0.34863456 0.10935651
0.73437188 0.39962704 0.64675948
0.64287329 0.98670281 0.13848921
0.73473503 0.89428221 0.64744233
0.26812846 0.10184030 0.14628651
0.26252899 0.14570313 0.61331733
0.25998057 0.64001430 0.10863924
0.26295182 0.60827961 0.64143539
0.76128452 0.11081558 0.14694458
0.76363405 0.14376050 0.61740498
0.84577494 0.59978719 0.23454657
0.90180275 0.73654860 0.65168555
0.23886804 0.14598732 0.39243824
0.23924635 0.10374863 0.85843850
0.23833297 0.61219810 0.36131018
0.09948961 0.59922743 0.98716434
0.73567754 0.14571491 0.39606204
0.64963986 0.14139231 0.98610984
0.73437827 0.64537903 0.39522531
0.73928197 0.63519696 0.89902084
0.01318488 0.00016836 0.00459998
0.00664229 0.99939397 0.49507493
0.99285362 0.49790648 0.01049101
0.99775780 0.51021164 0.49958502
0.49668978 0.00109181 0.99530594
0.51033950 0.00636422 0.50616553
0.50145174 0.49576349 0.99536386
0.50816579 0.50167425 0.50090235
0.00088857 0.24733222 0.25139405
0.99422523 0.25077603 0.74968037
0.99326265 0.74573982 0.24745681
0.00340945 0.74889084 0.75441817
0.49932150 0.24071039 0.25007637
0.49749618 0.25552845 0.74626222
0.49576393 0.74600412 0.23975466
0.49003830 0.75293581 0.74938987
0.25047622 0.99294348 0.24552770
0.24812608 0.00868994 0.75157093
0.25242362 0.49948647 0.26398231
0.25115026 0.50169177 0.74283883
0.74514249 0.99449244 0.24036250
0.75944364 0.99414590 0.75892599
0.75006733 0.49227185 0.25530102
0.75605137 0.50559703 0.74329546
0.24996724 0.26308137 0.99862825
0.24570691 0.24199755 0.50536659
0.24894416 0.74045447 0.00044651
0.24875094 0.76115764 0.50138221
0.74362089 0.25118900 0.99870422
0.75477077 0.24554912 0.50043497
0.74534488 0.74694262 0.99904598
0.73821086 0.75562958 0.49606344
0.12607679 0.12336662 0.37778731
0.12628699 0.12349207 0.87584001
0.12403122 0.62247681 0.37587523
0.12352155 0.62688000 0.87635091
0.62333038 0.12328784 0.37517861
0.62806668 0.12769648 0.87251793
0.62181662 0.62613415 0.37717059
0.62654375 0.62470139 0.87723456
0.37507961 0.37475252 0.37366562
0.37603312 0.37808409 0.87833317
0.37375144 0.87519290 0.37353941
0.37354092 0.87664530 0.87452508
0.87112641 0.37434479 0.37870557
0.87957795 0.37742140 0.87446713
0.87366287 0.86940791 0.37752311
0.87539496 0.87706560 0.87622185
0.37929140 0.12395135 0.12278799
0.37511744 0.12826441 0.62845964
0.37392270 0.62570892 0.12389200
0.37574848 0.62599001 0.62734389
0.87439104 0.12442737 0.12831286
0.87725024 0.12820084 0.62486285
0.87503315 0.62398076 0.12513683
0.87615816 0.62591600 0.62765557
0.12537338 0.37156447 0.12968412
0.12796668 0.37623682 0.62558941
0.12518551 0.87456778 0.12698572
0.12574293 0.87444396 0.62272416
0.62914432 0.37575068 0.12565986
0.62231442 0.37640481 0.62618124
0.62650434 0.87387150 0.12156351
0.62258151 0.87622356 0.62551902
0.05308502 0.44009033 0.31417278
0.05795019 0.44388651 0.80871630
0.05997945 0.94065355 0.31141358
0.05824395 0.93828642 0.80393349
0.55787966 0.44317683 0.30983799
0.55911011 0.44095064 0.80743387
0.56066132 0.93911975 0.30603069
0.55608367 0.94066242 0.80793311
0.44111842 0.04995447 0.30885019
0.44436092 0.06018771 0.81205201
0.44212288 0.55940088 0.30443968
0.44352003 0.55785731 0.81324955
0.93959603 0.05152137 0.31455195
0.94651701 0.05854807 0.80748896
0.93644754 0.55701724 0.30787907
0.94338704 0.55746922 0.80874974
0.44575919 0.44449701 0.18761685
0.44169386 0.44642852 0.69183098
0.44294668 0.93773363 0.18905954
0.44188009 0.94834517 0.68985602
0.94031943 0.43841108 0.19539149
0.94746667 0.44600775 0.68769291
0.94239853 0.93800943 0.19633793
0.94054660 0.94310465 0.68922902
0.05487465 0.05839395 0.19674076
0.05874981 0.05562255 0.68787666
0.05855215 0.55414360 0.19711037
0.06364970 0.56270858 0.69417980
0.55642201 0.05531156 0.18943297
0.55986307 0.06125264 0.69534306
0.56375964 0.55776975 0.19263221
0.55881797 0.56275205 0.69788615
0.30940737 0.06191446 0.44421607
0.30736796 0.06159899 0.94542094
0.31048387 0.56127679 0.44516669
0.30676017 0.55934594 0.94628053
0.81025292 0.05842908 0.44285265
0.80794101 0.06307970 0.94084296
0.80426507 0.56174126 0.44515783
0.81318892 0.55261706 0.94293251
0.30604221 0.44111054 0.06030369
0.31156634 0.44127801 0.55755147
0.30939413 0.93920714 0.05369908
0.31203885 0.94480051 0.55998875
0.80543850 0.44034856 0.06245966
0.80644749 0.44139836 0.55812001
0.81172123 0.94362749 0.05368757
0.80866714 0.94068574 0.55960384
0.19495965 0.44260352 0.44146693
0.19049580 0.44424250 0.94112028
0.19858350 0.94280838 0.44142064
0.19231945 0.94315102 0.93961564
0.68954487 0.44453650 0.44298554
0.69796473 0.44054077 0.93901813
0.69323228 0.94512858 0.44187585
0.69110074 0.94529832 0.94230688
0.19311404 0.05503522 0.06235256
0.19353867 0.05780488 0.56124518
0.18819469 0.55578409 0.06074161
0.19414922 0.55684223 0.55939627
0.69487103 0.05966460 0.05920156
0.69652107 0.05989935 0.56112798
0.69141705 0.55907801 0.05557527
0.69210392 0.55894947 0.56305286
0.44846700 0.31024088 0.06009424
0.43944048 0.30872117 0.55494331
0.43849158 0.80819627 0.05594284
0.43794891 0.80668762 0.56197708
0.94430788 0.30759202 0.06179703
0.94679742 0.31395861 0.55684668
0.94182632 0.80955275 0.06139806
0.94476434 0.80615725 0.56114242
0.06183268 0.30932156 0.44150502
0.05776164 0.30491071 0.94337645
0.05786739 0.80578790 0.44147436
0.05586446 0.80963258 0.94412727
0.55747143 0.30994197 0.44247445
0.56022048 0.30824741 0.93990230
0.55152873 0.81388942 0.44445796
0.55829258 0.80980728 0.94376165
0.44447809 0.19102642 0.44034698
0.44181958 0.19456210 0.94287337
0.43908848 0.69392580 0.44271253
0.44439847 0.69240730 0.93783208
0.94305860 0.19615860 0.44107419
0.94069211 0.19446782 0.94374216
0.93885704 0.69232502 0.44236660
0.94021785 0.69460066 0.94367872
0.05696039 0.18793504 0.06159707
0.05605666 0.19256485 0.55972353
0.05751888 0.69139346 0.05940452
0.05822334 0.68762679 0.55558345
0.56244598 0.19215800 0.05540209
0.55801712 0.19391768 0.55978975
0.55476232 0.69173494 0.05816050
0.55702089 0.69325112 0.55755317
0.31085551 0.30414806 0.19284673
0.31124597 0.30942274 0.69690803
0.30271668 0.80753630 0.18977724
0.30698915 0.81389941 0.69662382
0.80879897 0.30447382 0.19518054
0.80851264 0.31068719 0.68596137
0.80508741 0.80881675 0.19334731
0.80679188 0.80629409 0.69148027
0.31234429 0.18827328 0.30769283
0.30771950 0.19614474 0.81496274
0.30939334 0.69286407 0.30731949
0.30786257 0.69143599 0.80749041
0.80794262 0.18925444 0.30973835
0.81113931 0.19878124 0.80601511
0.80437832 0.68808985 0.30625124
0.80564926 0.69416523 0.81266703
0.19466812 0.18641830 0.19281674
0.19302313 0.19365580 0.69633728
0.19005077 0.68846387 0.19336739
0.19394504 0.69499828 0.68966613
0.68876823 0.19236929 0.19294002
0.68898821 0.19734408 0.69198802
0.69124701 0.68968312 0.18863062
0.69195473 0.69125724 0.69285792
0.19241279 0.30192709 0.30842412
0.19037175 0.31133047 0.80891049
0.18815432 0.80390914 0.30918409
0.19012147 0.80697792 0.81055077
0.68984723 0.30376424 0.31088252
0.69961520 0.31472008 0.80786512
0.68794806 0.80330733 0.30812212
0.68847841 0.80910507 0.80735279
0.99943229 0.99738600 0.25435928
0.00116382 0.99867053 0.74748078
0.99693524 0.49783654 0.25346581
0.00338073 0.50348285 0.74899997
0.50053533 0.99532652 0.24810595
0.50026898 0.00263745 0.75134250
0.50272080 0.50099344 0.24871681
0.50032509 0.50129819 0.75235272
0.24944004 0.99970178 0.99989664
0.25291902 0.00213864 0.50231784
0.24800396 0.49960418 0.00237369
0.25293897 0.49997572 0.50066868
0.75164677 0.00288096 0.99849778
0.75258969 0.00081543 0.50147728
0.75104156 0.49917340 0.00111956
0.74775771 0.50093673 0.50246450
0.00096922 0.24792112 0.00346725
0.00245810 0.25277093 0.49946573
0.99896813 0.75085594 0.00317874
0.99971513 0.74790426 0.50012340
0.50277871 0.25082434 0.99941473
0.50025130 0.25014387 0.49994507
0.49836456 0.75095154 0.99938248
0.49679206 0.75145922 0.50165941
0.25240204 0.24529779 0.25033684
0.25091485 0.25265513 0.75410748
0.24781984 0.74826761 0.25012306
0.24975871 0.75169820 0.75154690
0.74905547 0.24695088 0.25218372
0.75154357 0.25406416 0.74665699
0.74731098 0.74757322 0.24851072
0.74837057 0.75030522 0.75184039
Direct configuration=      2
0.10409880 0.01305923 0.39440185
0.12688939 0.12106056 0.76466946
0.13976809 0.51428303 0.35175544
0.14146902 0.73926608 0.89706672
0.64938511 0.01366122 0.35761951
0.64823098 0.01709575 0.84946473
0.65015576 0.51753135 0.34874162
0.61243527 0.51041978 0.88461701
0.36063501 0.49052316 0.36353310
0.39437244 0.49010972 0.89913919
0.38535783 0.89016249 0.49203217
0.40007739 0.98446684 0.89828116
0.76107700 0.35509139 0.39443709
0.76834498 0.39838576 0.85219961
0.89778572 0.97778691 0.40754117
0.85996997 0.98964919 0.86019984
0.39790244 0.01142491 0.10706298
0.39688814 0.14735280 0.74000976
0.40036327 0.51369392 0.09717727
0.39417445 0.51210439 0.59677824
0.85120574 0.14327217 0.01980065
0.86694809 0.00904041 0.64055140
0.86671366 0.51018093 0.12897474
0.76460722 0.65337114 0.60143380
0.13241728 0.48844629 0.12931798
0.13741672 0.48812545 0.63739323
0.12922237 0.96310408 0.19829351
0.14957128 0.98111021 0.65066559
0.64943672 0.48729546 0.13983873
0.60750234 0.49068925 0.61223125
0.59904353 0.89432879 0.00735151
0.60944963 0.98669395 0.60627787
0.30656022 0.14193890 0.02927788
0.36015075 0.01432472 0.64533787
0.35378362 0.64846507 0.01282748
0.34966832 0.65658553 0.51578278
0.89978414 0.23002465 0.15312347
0.88884856 0.10688616 0.51365443
0.76008165 0.64064709 0.09942886
0.89816869 0.59877147 0.51733867
0.35176603 0.35188705 0.48439865
0.36086728 0.35749645 0.98947050
0.40082941 0.76765360 0.35477754
0.35120384 0.85601644 0.98638145
0.86984220 0.36597589 0.48790292
0.88851774 0.38227050 0.98942433
0.85761209 0.85065666 0.49227900
0.75984537 0.86238345 0.89530123
0.13364179 0.36520987 0.01201684
0.23905923 0.39152526 0.64520275
0.11350707 0.89649344 0.01900973
0.10907071 0.89293787 0.50989221
0.60679980 0.39642790 0.01532611
0.61097220 0.39019850 0.51093374
0.73217867 0.85764586 0.09830556
0.64498789 0.85111167 0.51779146
0.13083999 0.13586912 0.48945780
0.09886334 0.01153294 0.89561864
0.09876463 0.59495989 0.48473999
0.23736892 0.63714383 0.88737912
0.64098035 0.13785843 0.49436089
0.51571495 0.10652929 0.89484615
0.61355088 0.60863091 0.48874525
0.59854133 0.60493547 0.98567253
0.01167404 0.39371265 0.10727331
0.14093319 0.36596160 0.50990978
0.01289917 0.88843985 0.11623382
0.01035402 0.89406424 0.60810754
0.51591040 0.36597877 0.14190801
0.51341244 0.35030573 0.65141885
0.61795686 0.76419962 0.12614825
0.50931241 0.88686103 0.60857419
0.48651468 0.39970280 0.39392615
0.48946599 0.38476761 0.88545953
0.48896827 0.90303594 0.39205537
0.48255345 0.85512931 0.85184597
0.85600506 0.48888898 0.36442181
0.90027999 0.48439218 0.88945254
0.98453112 0.85172460 0.35547065
0.90017301 0.89940895 0.98593331
0.01024415 0.13759466 0.35881189
0.01502763 0.14977738 0.86179056
0.00926828 0.64077831 0.36265150
0.11232037 0.64671366 0.76169391
0.51499873 0.10054345 0.40535305
0.60176783 0.14566192 0.75893082
0.51136890 0.60662008 0.39437896
0.51519294 0.65023791 0.84511241
0.46310062 0.12450453 0.04618798
0.48530279 0.10663397 0.60503278
0.49047354 0.63690911 0.13526723
0.48855751 0.61963104 0.61651989
0.98539056 0.09699467 0.10489237
0.99096618 0.11645436 0.61946605
0.90018556 0.60167910 0.01416335
0.86068284 0.50976235 0.63969977
0.10202582 0.26139560 0.15137496
0.14542687 0.26246723 0.60986967
0.15225757 0.76061393 0.09942408
0.13648586 0.75982034 0.60069633
0.61127146 0.26021711 0.14446755
0.64886442 0.26653641 0.60284783
0.65040760 0.89845502 0.23055234
0.60460678 0.76009716 0.64548007
0.39380219 0.23748083 0.13888103
0.35581899 0.14344132 0.51506212
0.38591584 0.73813455 0.13769582
0.39486621 0.73496408 0.65472893
0.86724139 0.10761585 0.24515550
0.85133677 0.23366870 0.60083894
0.86769011 0.73950977 0.11879434
0.98778000 0.62888354 0.63879388
0.39880025 0.26331384 0.35040959
0.39705526 0.26554856 0.85489035
0.35844251 0.88991884 0.26430269
0.36200088 0.76126389 0.87680601
0.98540717 0.40200441 0.39739575
0.99100224 0.35247191 0.86339725
0.87100412 0.75678381 0.37306676
0.85973841 0.76141353 0.89654768
0.10674490 0.23994474 0.35679736
0.12448625 0.12056962 0.99396057
0.14290273 0.73571479 0.40231304
0.14521462 0.51493305 0.84806842
0.62858828 0.23936059 0.38330995
0.60932988 0.24291692 0.85895010
0.62723279 0.74130408 0.38724230
0.63840961 0.73711133 0.89309080
0.36523510 0.38809737 0.25796814
0.35629034 0.40330231 0.76544189
0.35122776 0.99201949 0.36204156
0.35863365 0.89137709 0.76105309
0.85606399 0.38676634 0.26073301
0.89367992 0.35037036 0.76053231
0.84704835 0.89667143 0.26736421
0.98501383 0.85217552 0.85471816
0.44114274 0.12606642 0.21723759
0.37021952 0.24135643 0.62319849
0.38028612 0.62562465 0.23829040
0.35897944 0.59849478 0.73660676
0.86568009 0.00466196 0.13173857
0.89960169 0.14712123 0.73758392
0.98551175 0.64395899 0.14601996
0.85238903 0.60689764 0.74150413
0.14071668 0.10996743 0.26440335
0.14813270 0.23553884 0.89388378
0.10991812 0.64557353 0.26298791
0.01030453 0.64488724 0.85719074
0.60484683 0.14243306 0.26854203
0.73918627 0.14187174 0.88134018
0.60367382 0.64840336 0.26301690
0.65175299 0.60074957 0.76400262
0.13959899 0.38789830 0.23910457
0.01413318 0.39686123 0.60161044
0.10106573 0.82876050 0.23664028
0.10275032 0.84763851 0.73301035
0.64803632 0.38784761 0.23874922
0.64019924 0.39094598 0.73693600
0.50926064 0.85680833 0.14612828
0.60547627 0.86379239 0.74163494
0.26147816 0.38062605 0.36485786
0.26189079 0.36460690 0.88764130
0.26432575 0.85331787 0.39968253
0.25653868 0.89399532 0.86081731
0.90067886 0.26549633 0.35410208
0.85337550 0.26218828 0.89735573
0.75676026 0.86345384 0.38597145
0.85686424 0.88313466 0.76393941
0.23777983 0.35592297 0.11010873
0.10047747 0.35090520 0.73464173
0.23850415 0.89321425 0.14140597
0.23732696 0.85766383 0.60392502
0.73734294 0.34198982 0.09571562
0.73768081 0.39557681 0.63589954
0.60478017 0.99356951 0.11200621
0.73326894 0.89430819 0.65034248
0.27385461 0.10065848 0.16349499
0.26105612 0.11539925 0.64224801
0.26401408 0.60511420 0.14219107
0.26102129 0.60901726 0.63749983
0.75911567 0.10702394 0.14206400
0.76389560 0.10580095 0.65407026
0.85316196 0.60880099 0.23628019
0.89453659 0.73634559 0.65196575
0.23796409 0.14764452 0.38822345
0.24039545 0.09882892 0.85761453
0.23837851 0.62302829 0.37346667
0.09701221 0.59841332 0.98489916
0.74202884 0.13552090 0.38744054
0.64323030 0.14728278 0.98605982
0.73589087 0.64567984 0.39379301
0.73811797 0.63353739 0.89557935
0.00650289 0.99192174 0.01005817
0.00125346 0.99801137 0.50281193
0.99213055 0.49475545 0.00317402
0.99724914 0.49793305 0.50235154
0.50035666 0.00221331 0.00122617
0.49859717 0.99642023 0.50857143
0.50471378 0.49669473 0.99201606
0.50957626 0.50618975 0.50327026
0.00096687 0.24014076 0.25763929
0.99953364 0.25009037 0.75927078
0.99902065 0.74001568 0.25789717
0.00246242 0.74415671 0.75245493
0.50066323 0.24981448 0.24330912
0.49986128 0.24838831 0.75580586
0.49538732 0.74282350 0.23624152
0.50239332 0.75575439 0.74906941
0.25110797 0.99581853 0.24916447
0.25265962 0.00403786 0.74719627
0.25005512 0.49612663 0.25803516
0.24976934 0.50152688 0.74043795
0.75128993 0.00033344 0.24902328
0.76045963 0.99589089 0.74925090
0.75407747 0.49477292 0.24933290
0.75065306 0.49483667 0.74474515
0.24758049 0.26647039 0.99689593
0.24853606 0.24816354 0.50351138
0.25330182 0.74776528 0.98962365
0.24433883 0.75519111 0.50015734
0.75281544 0.23993542 0.99434762
0.74422539 0.24924185 0.49561316
0.74956290 0.74946722 0.99462961
0.74500007 0.75377939 0.48781996
0.12427441 0.12629944 0.37594446
0.12713432 0.12293154 0.87893207
0.12366111 0.62512165 0.37539352
0.12347416 0.62631524 0.87491220
0.62659836 0.12493672 0.38078970
0.62600618 0.12907555 0.87142304
0.62349625 0.62714822 0.37524164
0.62528140 0.62389691 0.87484482
0.37545026 0.37634991 0.37257391
0.37582944 0.37775677 0.87680513
0.37573754 0.87932279 0.37745855
0.37034405 0.87561467 0.87365302
0.87347690 0.37583013 0.37464258
0.87869514 0.37247578 0.87464066
0.87176743 0.86986448 0.37776789
0.87336471 0.87485475 0.87663245
0.37713486 0.12510403 0.12063013
0.37419682 0.12747757 0.62771385
0.37624822 0.62376162 0.12401059
0.37472041 0.62388423 0.62454864
0.87385068 0.11844969 0.13082441
0.87621074 0.12293827 0.62663367
0.87245678 0.62524838 0.12404525
0.87375195 0.62425750 0.62890149
0.12430973 0.37421099 0.12639569
0.12672084 0.37479419 0.62395725
0.12605478 0.86966464 0.13090046
0.12350157 0.87245205 0.62191285
0.62926070 0.37341180 0.12670795
0.62419135 0.37742382 0.62426725
0.62015949 0.87849254 0.12036110
0.62196787 0.87386321 0.62844767
0.05590395 0.44180284 0.30850070
0.05846299 0.43943826 0.80924316
0.06128491 0.93529348 0.30617950
0.05986823 0.93728624 0.80924448
0.56186323 0.44182709 0.30693506
0.55803620 0.44068395 0.80529163
0.56473309 0.94054553 0.30740700
0.55647119 0.94503272 0.81251657
0.44468064 0.05461277 0.31567327
0.44153397 0.05918868 0.80967956
0.44568067 0.55722055 0.30877827
0.44302689 0.55750749 0.80960275
0.94097281 0.04841694 0.31799485
0.94672646 0.05840976 0.81067766
0.93875078 0.55765768 0.30771921
0.94207645 0.55748145 0.80714669
0.44402189 0.44588492 0.18981087
0.44233760 0.44436183 0.68908697
0.44223900 0.94153786 0.19668914
0.44245021 0.94181247 0.69363756
0.94065430 0.44124887 0.19223693
0.94404512 0.43921615 0.69209555
0.93892519 0.93592337 0.19799468
0.94289202 0.93777556 0.69690952
0.05407273 0.05421931 0.19689701
0.06051670 0.05290275 0.69273739
0.05717195 0.55840802 0.19300484
0.06079045 0.55665976 0.69565231
0.55124236 0.06259065 0.19498597
0.55737564 0.05772107 0.69143897
0.56330105 0.55848194 0.19214822
0.55881369 0.56158148 0.69451700
0.30431572 0.06264184 0.44504891
0.31476043 0.05788881 0.94243878
0.31074250 0.56107442 0.44556223
0.30906656 0.55952777 0.94327532
0.80929633 0.05245121 0.44394519
0.80679153 0.05956621 0.94163425
0.80773350 0.56319434 0.44329065
0.81248561 0.55304444 0.94182607
0.30697128 0.44354367 0.05885609
0.30671577 0.44019900 0.55584692
0.31092562 0.94169362 0.05843227
0.30582256 0.94566395 0.56118941
0.80483911 0.43689072 0.05798765
0.80891962 0.44303013 0.55475652
0.80524966 0.93986199 0.05307245
0.80747463 0.93741734 0.56197079
0.19243779 0.44517768 0.43796138
0.18998592 0.44580875 0.94072728
0.19261433 0.94451084 0.44212028
0.19143236 0.94821150 0.94547664
0.69192937 0.44623265 0.43962625
0.69299919 0.43838040 0.93895202
0.68875992 0.94178352 0.44772533
0.68741048 0.94537719 0.93924609
0.20510897 0.06626068 0.06214325
0.18802365 0.05848639 0.56219449
0.19123500 0.56132302 0.05646273
0.19062290 0.55847916 0.55593343
0.69020948 0.05926940 0.05696267
0.69605029 0.05739120 0.56425833
0.69088830 0.55611278 0.05231362
0.69430729 0.55979989 0.56087172
0.44660871 0.31274015 0.05925855
0.44112422 0.31212759 0.55797233
0.43920046 0.80804719 0.05542661
0.43704506 0.80473778 0.56125982
0.94191954 0.30403573 0.06407163
0.94103542 0.30710142 0.56094272
0.94222845 0.80901105 0.05927381
0.94148536 0.80431879 0.56323875
0.05576699 0.31038469 0.44249689
0.05825889 0.30162312 0.94626060
0.05394516 0.80571060 0.44362252
0.05809556 0.81064688 0.94508947
0.55470233 0.31104870 0.44157207
0.56253858 0.31177753 0.94308139
0.55315122 0.81390381 0.44505546
0.55371961 0.80894517 0.93771412
0.44124129 0.19270627 0.44324953
0.44427067 0.19443990 0.94561444
0.44055659 0.69312572 0.44178952
0.44038617 0.69102499 0.93772038
0.94116351 0.19216610 0.44384723
0.94018713 0.18753511 0.94816323
0.93702429 0.68903340 0.44550143
0.94334339 0.69144357 0.94463620
0.05607186 0.18807435 0.06516072
0.05859059 0.19485098 0.56018293
0.05911475 0.69110723 0.05941335
0.05559283 0.68545742 0.55655031
0.55933554 0.19391107 0.05862595
0.55715107 0.19549433 0.56021704
0.55680534 0.69319320 0.05347493
0.55895725 0.69394285 0.55621818
0.30954483 0.30716666 0.19080048
0.30996445 0.31068452 0.69803251
0.30786283 0.80868901 0.19330454
0.30688525 0.80906051 0.69027326
0.80820715 0.30278498 0.18950491
0.80753029 0.30899466 0.68628534
0.80219642 0.81101873 0.18918777
0.80500533 0.80518987 0.69177302
0.31282649 0.18912967 0.30366188
0.30762156 0.19356129 0.81277419
0.31214644 0.69348954 0.30985557
0.30647467 0.68835940 0.80209622
0.81231551 0.19222046 0.30974987
0.81077834 0.19491390 0.80372886
0.80210643 0.69140508 0.30401775
0.80564060 0.69147151 0.81191497
0.19435663 0.18983892 0.19066189
0.19194748 0.19426723 0.69582736
0.19458130 0.69146300 0.19254085
0.19090719 0.69367345 0.68658484
0.69126131 0.18769698 0.19673077
0.69085589 0.19407108 0.69068123
0.68922236 0.69138693 0.18689673
0.69141102 0.68968236 0.69344786
0.19308929 0.30498156 0.30677232
0.19013251 0.31092145 0.80901998
0.19273954 0.80539285 0.31137546
0.19053299 0.80643829 0.80664953
0.69393673 0.30580009 0.30897907
0.69528493 0.31104117 0.80721278
0.68556221 0.80810464 0.30338517
0.69050855 0.80839432 0.80975553
0.99768266 0.99487098 0.25475044
0.00186183 0.99720430 0.75310854
0.99805283 0.50005170 0.25029815
0.00066584 0.49762528 0.75110906
0.50208643 0.99874771 0.25463376
0.49959485 0.00129750 0.75147111
0.50421497 0.50050628 0.24918996
0.49989436 0.50088918 0.74904808
0.25446622 0.00334199 0.00200719
0.24728454 0.00316083 0.50278577
0.24945232 0.50136130 0.99984381
0.25006241 0.50091989 0.49901353
0.74723679 0.00132474 0.99780836
0.75065859 0.99729543 0.50446950
0.75070506 0.49619316 0.99724488
0.74986607 0.50289923 0.49926880
0.99896706 0.24542637 0.00533560
0.99937396 0.25113054 0.50107029
0.00132642 0.75050006 0.00236958
0.99702953 0.74666251 0.50225343
0.50376326 0.25402567 0.00041165
0.49842144 0.25199049 0.50099310
0.49646242 0.75035652 0.99621584
0.49732484 0.75148514 0.50085917
0.25308172 0.24701928 0.24923981
0.25058299 0.25195587 0.75439906
0.25144075 0.74955243 0.25218841
0.24857045 0.74985455 0.74695198
0.75181870 0.24692619 0.25089656
0.75047792 0.25248669 0.74704680
0.74513387 0.75074475 0.24594752
0.74764110 0.74863053 0.75241514
Direct configuration=      3
0.12025629 0.01203134 0.37747569
0.11009077 0.14890085 0.75990337
0.13667448 0.51227566 0.35732584
0.13989257 0.74002526 0.89814213
0.63637267 0.00752700 0.36355524
0.64697616 0.01651752 0.85126105
0.64813123 0.51450643 0.35572197
0.61238392 0.51041834 0.88624229
0.35263104 0.48550108 0.35979513
0.39073206 0.49119451 0.89803602
0.35868157 0.86132489 0.49055491
0.40065201 0.98454021 0.89737896
0.76132007 0.35326219 0.39553239
0.76933397 0.39880880 0.85408779
0.89771426 0.97893824 0.40639070
0.85683271 0.99047598 0.85806413
0.39607090 0.01279197 0.10370668
0.39052388 0.14442966 0.73971282
0.39659892 0.51455027 0.09866617
0.40093701 0.51470192 0.59754611
0.86227694 0.13471263 0.01498496
0.89319331 0.01115881 0.60274266
0.86839207 0.51308727 0.12578256
0.76416539 0.65394291 0.60131434
0.10455988 0.48836308 0.11236483
0.14133906 0.49013308 0.64201735
0.12312793 0.95650595 0.20499852
0.14400252 0.98429437 0.65013609
0.64616743 0.48760027 0.13903042
0.60854334 0.48953032 0.61282736
0.59608304 0.89378605 0.00951693
0.60683912 0.98711701 0.60094368
0.30430993 0.14118492 0.02622796
0.39907231 0.01770947 0.60326476
0.35141070 0.64944724 0.01408065
0.35283975 0.65431407 0.51490457
0.89824947 0.23052291 0.15114111
0.85220026 0.14100626 0.50857330
0.76135024 0.64627441 0.09534278
0.89653873 0.59977378 0.51720858
0.36530130 0.35888939 0.48949582
0.35900278 0.35771496 0.98810142
0.39767119 0.76599323 0.35368193
0.35379559 0.85529260 0.98442361
0.87009007 0.36744179 0.48667367
0.89597415 0.38753287 0.99272330
0.85611068 0.84483138 0.49021158
0.75816324 0.86587788 0.89229221
0.10631103 0.38722974 0.01153131
0.24024959 0.39285643 0.64171749
0.10838255 0.90369412 0.01656531
0.09651867 0.90052928 0.51540741
0.60659684 0.39549036 0.01477804
0.60779261 0.39087826 0.51244162
0.72835562 0.85485290 0.09796264
0.64443629 0.84608807 0.51618753
0.10818348 0.11213294 0.48908428
0.13531287 0.01138659 0.85398245
0.10044741 0.59718981 0.48591120
0.23674059 0.64005576 0.88787855
0.64697241 0.13204861 0.49143646
0.51604602 0.10705187 0.89297857
0.61314875 0.60999158 0.48913701
0.59911571 0.60598206 0.98816770
0.01102283 0.35659903 0.15303302
0.11626481 0.39597366 0.50891788
0.00978336 0.89414631 0.11543437
0.01113750 0.86008610 0.63948190
0.51328380 0.36885638 0.13895707
0.51725880 0.34876718 0.65410007