Li192 P32 S160 I32
1.0
20.433000 0.000000 0.000000
0.000000 20.433000 0.000000
0.000000 0.000000 20.433000
Li I S P
192 32 160 32
Direct configuration=      1
0.08834546 0.24384291 0.32136184
0.15157183 0.24379296 0.92289858
0.22886807 0.65662252 0.42497005
0.23874702 0.50220733 0.63086507
0.56529816 0.06086349 0.07223109
0.60351972 0.17680833 0.76645315
0.88999872 0.40755986 0.02024091
0.75800624 0.40564386 0.87077435
0.26150177 0.22262222 0.39571719
0.09276445 0.00922346 0.90420210
0.25569920 0.58019699 0.13837978
0.16002337 0.56487802 0.73670431
0.41946902 0.24962829 0.36206956
0.90511765 0.09225239 0.02510077
0.54344088 0.42337969 0.65822427
0.65877921 0.76574712 0.42897220
0.29134347 0.11984642 0.22577379
0.01085830 0.15263463 0.86463227
0.01726368 0.61371928 0.36953374
0.11669537 0.48692148 0.00523920
0.51172689 0.11625729 0.38492724
0.52483284 0.10677230 0.90021185
0.92600828 0.62640341 0.51994261
0.61637251 0.71703336 0.77642777
0.00656175 0.09378688 0.37461483
0.25847911 0.15319803 0.98072074
0.09892252 0.64296875 0.47490337
0.15687290 0.69413268 0.98245962
0.64780697 0.11212127 0.26609828
0.66888783 0.98522242 0.66021649
0.48037524 0.40057774 0.41472233
0.76329182 0.75216490 0.89474980
0.18348556 0.01189500 0.35277317
0.11204352 0.11296537 0.98506214
0.33068757 0.68855291 0.03424434
0.17095534 0.97770742 0.69489319
0.68693505 0.04694972 0.36457307
0.83357542 0.26607514 0.91986501
0.84251665 0.77959735 0.44981437
0.62949424 0.72594718 0.98703305
0.15783405 0.16175522 0.50893759
0.25104325 0.35926929 0.05013494
0.14362511 0.61747334 0.25917367
0.90001900 0.65399494 0.22327055
0.62150394 0.24690198 0.34959985
0.98647656 0.08938836 0.59541438
0.67333554 0.50895944 0.35243155
0.76436849 0.58092833 0.81820231
0.16925362 0.40901672 0.75738412
0.12399594 0.50908107 0.37311117
0.10805733 0.71597415 0.78598925
0.24023107 0.85830988 0.59002417
0.80646824 0.64842228 0.02383022
0.85942962 0.19431785 0.51927975
0.57518930 0.58439934 0.51437789
0.78361494 0.87201310 0.76031715
0.39332260 0.03598176 0.01981911
0.23202125 0.27301954 0.61554642
0.02067986 0.88821492 0.09455140
0.27314820 0.87882878 0.75550722
0.65399488 0.24547378 0.93528671
0.59984925 0.26166692 0.65069953
0.59926341 0.86655580 0.24511714
0.22873634 0.65217909 0.57372448
0.14283936 0.49117723 0.18834760
0.29136183 0.36372784 0.48963109
0.33112409 0.84316808 0.99750595
0.39372839 0.86709181 0.26027343
0.64719268 0.57281938 0.76035905
0.65296354 0.40267232 0.75835971
0.62376547 0.91040695 0.02716705
0.75533488 0.66722387 0.42308977
0.99478618 0.35674056 0.15306945
0.88588617 0.27831598 0.38046837
0.11328314 0.99638826 0.10222979
0.02687839 0.87166401 0.58449675
0.49801002 0.40027840 0.06325060
0.60847478 0.39389995 0.53676393
0.70754618 0.82446844 0.11156094
0.09885613 0.84860050 0.71411322
0.23439279 0.39575919 0.22162850
0.01412792 0.28987120 0.62904889
0.22886727 0.79124475 0.09892581
0.35706235 0.00163408 0.83870694
0.40866228 0.35256481 0.24172988
0.64211188 0.21227484 0.48670125
0.49995285 0.89182540 0.09100752
0.50585358 0.63300575 0.35465076
0.59028622 0.37102364 0.26465944
0.25755777 0.53861428 0.85532963
0.13986035 0.89410734 0.23564774
0.13868410 0.75879359 0.58756213
0.76320364 0.62312799 0.22100618
0.75339651 0.32315542 0.59262081
0.68201970 0.95898958 0.17593160
0.75454894 0.09963976 0.74821785
0.64763482 0.25024329 0.08532692
0.48618462 0.15128595 0.66724020
0.61040671 0.49687262 0.89001301
0.33642754 0.56255465 0.75307296
0.82975991 0.22577338 0.08742884
0.59328869 0.90745716 0.52480728
0.81938727 0.52170224 0.16072376
0.77819153 0.57721341 0.67799141
0.32051360 0.99746925 0.33298006
0.36195805 0.08890649 0.73880403
0.40862826 0.59279095 0.02678608
0.48692760 0.64262746 0.66370449
0.76607930 0.09524150 0.19393218
0.76827573 0.16150144 0.58622209
0.72835647 0.67204013 0.11022067
0.90646977 0.62310012 0.73696299
0.49287358 0.18513108 0.14433116
0.34480474 0.00658675 0.66057390
0.35843215 0.62082699 0.25027455
0.32870811 0.74045649 0.57131157
0.96795142 0.16325280 0.14235823
0.88293475 0.23341073 0.73082111
0.84684145 0.74614540 0.10387001
0.84326830 0.44096223 0.74829114
0.23009520 0.94006565 0.14792792
0.38813351 0.24794058 0.65683655
0.09016898 0.75582557 0.14275558
0.32938342 0.39927406 0.77279213
0.73036521 0.35974236 0.03608162
0.86273646 0.98963599 0.69656211
0.93241991 0.61631474 0.05798701
0.92125810 0.73484955 0.64096482
0.23609157 0.08441242 0.82635803
0.14396826 0.32509415 0.49907704
0.48137927 0.63228445 0.15704601
0.38703299 0.48973647 0.60705667
0.73868030 0.13439344 0.99400439
0.61931615 0.05471091 0.48575140
0.78592297 0.97508912 0.85965653
0.91323018 0.51710966 0.60210518
0.15998462 0.07707258 0.23159542
0.26483873 0.10281754 0.66112059
0.34798807 0.49300083 0.18464446
0.15257890 0.82622656 0.49192565
0.83746339 0.02900546 0.34076087
0.00831512 0.32969641 0.85005950
0.12649078 0.74192862 0.35552997
0.75021637 0.84013465 0.57058157
0.74336038 0.41179842 0.19372513
0.39477674 0.46665974 0.93562388
0.11164965 0.97880717 0.57340764
0.29718948 0.75026501 0.87558003
0.66264202 0.52897837 0.17416528
0.32451792 0.22594349 0.08764581
0.89580493 0.93926709 0.46893095
0.97215512 0.87222620 0.94523431
0.28476850 0.50261038 0.34588284
0.34422012 0.99479216 0.18755625
0.28416895 0.82808668 0.42165170
0.12030513 0.14107258 0.76809851
0.81163442 0.48504469 0.35077354
0.73257360 0.18044430 0.41007672
0.74745616 0.89873321 0.36650631
0.78832736 0.65545354 0.58339771
0.06709664 0.48221304 0.62203277
0.25931777 0.34932770 0.90807318
0.44070240 0.80025042 0.38392555
0.47402201 0.65814556 0.85352452
0.98893692 0.40762922 0.37228361
0.00520734 0.52425735 0.88951863
0.48573110 0.84085159 0.64217843
0.77635188 0.86194703 0.00427480
0.33997996 0.18865780 0.51785227
0.36389071 0.28359271 0.97646283
0.17314292 0.84770494 0.99814935
0.38693623 0.74632601 0.15190242
0.89244728 0.39961154 0.48957270
0.95849000 0.75638065 0.85691802
0.83424234 0.92222528 0.25830381
0.66432979 0.98724722 0.82114717
0.44620059 0.11194995 0.54837579
0.37294531 0.27854288 0.83475132
0.37497575 0.88966214 0.47440054
0.59501933 0.76911218 0.15274269
0.89494440 0.38701718 0.27699063
0.87314246 0.00649543 0.13341533
0.98592997 0.91472804 0.37404281
0.88354680 0.16732123 0.23860420
0.16008551 0.25120555 0.09137654
0.47968712 0.35616917 0.87254975
0.47860126 0.95050302 0.37776748
0.49282529 0.84981714 0.85701442
0.76068975 0.34653269 0.43673054
0.71019580 0.46580335 0.64829402
0.90591986 0.79265444 0.30350103
0.65360656 0.72694295 0.59176421
0.36388143 0.62190326 0.62451604
0.12680551 0.61765645 0.87169269
0.63457811 0.86473566 0.64093219
0.88096020 0.37681765 0.87417670
0.38150685 0.11850346 0.12214610
0.36755323 0.37328884 0.36911400
0.62111333 0.64190805 0.39739711
0.12686129 0.36874600 0.12757667
0.11587797 0.36136874 0.62502125
0.61200726 0.64545367 0.88462050
0.86142018 0.85805759 0.86306384
0.14038888 0.13445331 0.36908793
0.65036178 0.11285053 0.87752783
0.62191072 0.38213702 0.13575758
0.86751690 0.11532225 0.64131541
0.35937931 0.87219416 0.86532253
0.99792533 0.00385985 0.98859348
0.99762452 0.01124242 0.49841523
0.98073961 0.51086290 0.00680988
0.99703471 0.50262528 0.48569616
0.50704946 0.98996705 0.98615146
0.49963234 0.99775763 0.49702752
0.52046390 0.51424859 0.00901167
0.49724378 0.48013047 0.51827440
0.98057758 0.25059539 0.25561049
0.01244896 0.23819587 0.75465731
0.02346848 0.74431370 0.25048331
0.00318801 0.77023532 0.73592986
0.51273565 0.26496684 0.27096612
0.50000343 0.26517007 0.74059893
0.47586184 0.74939004 0.25119565
0.48190898 0.74503922 0.75215527
0.24677065 0.00057886 0.24086576
0.27602939 0.00811802 0.74585611
0.24112954 0.51290964 0.23352075
0.24475298 0.49475028 0.75020586
0.74419504 0.00183171 0.26852868
0.75353999 0.98540909 0.74758964
0.73958035 0.50861851 0.25225142
0.73722153 0.49684879 0.75891491
0.24802722 0.26077301 0.00319592
0.23533290 0.24422127 0.50607930
0.24237718 0.75672792 0.98907338
0.22841296 0.74305124 0.51025042
0.74526552 0.25155648 0.00670416
0.75078648 0.24750967 0.50552276
0.74232639 0.74778052 0.02295363
0.74585162 0.74987308 0.51265242
0.44070129 0.17187567 0.45099810
0.44228303 0.19629915 0.93665941
0.44261771 0.69338874 0.44416062
0.42743124 0.69827124 0.94103568
0.94195162 0.18636561 0.42840926
0.92604786 0.19582058 0.94829120
0.92942981 0.70962774 0.42513655
0.92736269 0.68100686 0.94990397
0.20070998 0.06669491 0.05862884
0.19630420 0.06184777 0.54234726
0.19070477 0.56443379 0.04063294
0.17316899 0.55408599 0.54640354
0.68822939 0.06552312 0.07821857
0.69523948 0.06714339 0.57023907
0.69063475 0.56980377 0.06388825
0.69926487 0.55677651 0.57734245
0.30774209 0.07656978 0.42928761
0.31621032 0.06110808 0.93894159
0.31048333 0.56933744 0.44934904
0.31950183 0.56200401 0.95318776
0.78572352 0.07684455 0.44711683
0.81401507 0.05162905 0.95764317
0.80638309 0.56519314 0.44838905
0.78374131 0.56163412 0.94015238
0.04617531 0.18437818 0.06207867
0.04916836 0.18821322 0.55385761
0.04511278 0.67450672 0.06396834
0.03642092 0.70987668 0.54258217
0.55342369 0.17375779 0.04421561
0.55218900 0.18018438 0.56975264
0.53767680 0.69222664 0.06395429
0.54520801 0.68521881 0.57466571
0.14136073 0.13242898 0.88431693
0.13501992 0.62068177 0.37740058
0.62191023 0.13394677 0.38622391
0.44773285 0.45168164 0.19923890
0.43174642 0.43244953 0.71557038
0.45894952 0.94648381 0.18847804
0.43587009 0.95268386 0.68740228
0.92461688 0.45034015 0.18148603
0.95198932 0.43167714 0.67316362
0.93037013 0.92893737 0.19348369
0.96435755 0.94131093 0.67335855
0.19276143 0.30802632 0.30733439
0.19335899 0.30429558 0.82654235
0.20069180 0.83085587 0.32568173
0.19565678 0.80547478 0.79565421
0.69579896 0.32482245 0.31972077
0.69173213 0.31447876 0.82482235
0.68956705 0.81749732 0.32357314
0.69622622 0.79290577 0.80684366
0.30811969 0.32042786 0.18848086
0.29976913 0.31016105 0.70243334
0.30306199 0.81986407 0.20531662
0.29899036 0.78647032 0.67933925
0.81194957 0.30437118 0.19355400
0.79956381 0.31809233 0.70835604
0.79924084 0.81770065 0.18962476
0.81153758 0.79187995 0.68153934
0.05070909 0.42979067 0.28717776
0.05710332 0.44162484 0.80354165
0.05888729 0.95561677 0.30263263
0.08694605 0.95495689 0.78813702
0.55302540 0.46199616 0.33699376
0.55724583 0.43981044 0.82055985
0.57260610 0.96638769 0.30306036
0.55418049 0.93179021 0.80285275
0.13528845 0.88567291 0.11811004
0.13133558 0.87373550 0.61145630
0.64174809 0.36461646 0.64372237
0.60939408 0.87807194 0.13131902
0.19903584 0.19129015 0.19017073
0.18670764 0.19937032 0.69293398
0.18651736 0.71917325 0.19299948
0.16874826 0.67101512 0.68368617
0.69799459 0.19023940 0.21267516
0.68790132 0.19623407 0.69548127
0.68481353 0.71132598 0.21264940
0.69664050 0.67672831 0.69378187
0.42957737 0.05109708 0.30726967
0.45035664 0.06624144 0.79688065
0.42264255 0.55040826 0.32737186
0.43166676 0.55543503 0.81326215
0.93880777 0.06203770 0.28248045
0.95445154 0.05568170 0.79477165
0.93797631 0.54499960 0.30955908
0.92442713 0.52746332 0.80376016
0.04651006 0.05585361 0.16628419
0.07374767 0.06784654 0.67208942
0.05467079 0.55889247 0.18045996
0.04985216 0.56705861 0.69870223
0.55619705 0.07660418 0.18985706
0.57035815 0.04453946 0.68593662
0.55776481 0.58191207 0.23643942
0.54767270 0.55683996 0.70388409
0.31717191 0.19907471 0.30235780
0.30560490 0.18587481 0.81321797
0.29449485 0.70644197 0.32273465
0.28659860 0.67087024 0.80115782
0.80906402 0.20016269 0.32479966
0.79826834 0.20189282 0.81634968
0.80798447 0.69958057 0.31808811
0.82049740 0.68397835 0.80654270
0.36785031 0.14191805 0.62991447
0.36477772 0.62831388 0.13081607
0.86747683 0.12295544 0.13180848
0.84216817 0.64374160 0.13522791
0.87875370 0.62465108 0.62814094
0.20795143 0.43446835 0.42750241
0.19971092 0.44628065 0.94323733
0.21630316 0.93455261 0.43130586
0.20722662 0.95326040 0.93252269
0.68940500 0.44300257 0.45661349
0.68515703 0.43224290 0.95412225
0.67461239 0.95882717 0.44411723
0.70479967 0.94227802 0.95403835
0.43833047 0.29106284 0.06960024
0.43749879 0.29291692 0.55283890
0.42021579 0.80515784 0.05587625
0.42443360 0.80061779 0.55975257
0.93127068 0.30081154 0.06911640
0.93122752 0.29990577 0.54249141
0.94212102 0.81538417 0.05790296
0.92694805 0.82856563 0.54465685
0.04692804 0.31129168 0.43969597
0.04743822 0.30975608 0.95328803
0.05220661 0.81995454 0.42749538
0.05655155 0.78436961 0.93474391
0.56660636 0.29154062 0.45206967
0.55821994 0.31689158 0.96748692
0.54643738 0.80936445 0.44682219
0.55179154 0.82036026 0.96196386
0.31654839 0.45025775 0.06995019
0.29906750 0.44860283 0.55923097
0.31270028 0.95406629 0.06500036
0.31608142 0.94855472 0.55624862
0.80256864 0.45510758 0.06680905
0.81898661 0.44310231 0.56960676
0.79325341 0.94131301 0.08253379
0.80808321 0.95315481 0.54785506
0.37053701 0.37396978 0.89240887
0.37150338 0.88982380 0.36889139
0.87620995 0.39030694 0.38011888
0.86647174 0.88407567 0.36217284
0.25296381 0.00543008 0.00067992
0.25907708 0.00726491 0.48636284
0.25947489 0.50107584 0.00736037
0.24753717 0.50380332 0.48958372
0.74995598 0.00386106 0.02110217
0.74444808 0.01294623 0.50706002
0.73855598 0.50732077 0.00530850
0.75875528 0.50117735 0.50602167
0.24963073 0.25792620 0.24461369
0.24370797 0.24332157 0.76085914
0.24466404 0.76187700 0.26350134
0.23787933 0.72572728 0.73789854
0.75379703 0.25931570 0.26040188
0.74260023 0.25774864 0.76262648
0.75063825 0.76325213 0.26215539
0.75622160 0.73772675 0.74653345
0.99707342 0.99777709 0.23251283
0.01832908 0.00509004 0.73297377
0.99887438 0.49695821 0.23759220
0.99632150 0.49175509 0.74169040
0.50463360 0.00958821 0.24602170
0.50644137 0.99144779 0.74314194
0.49534839 0.50833103 0.27009471
0.48972441 0.49479174 0.76874707
0.99117954 0.24474968 0.00356721
0.99475708 0.24271687 0.49339339
0.99434018 0.73658319 0.00408654
0.98406733 0.77068192 0.48231529
0.49618332 0.24660751 0.00106002
0.50011052 0.23788210 0.50845917
0.48629085 0.74721202 0.00479468
0.49489038 0.74271551 0.50720860
Direct configuration=      2
0.10549889 0.24791370 0.31031292
0.14809680 0.25461565 0.90036835
0.21769457 0.68543536 0.41797905
0.21973113 0.46818892 0.64638822
0.57591534 0.08034436 0.06457206
0.60579543 0.19539060 0.80887045
0.88963580 0.39719385 0.00740165
0.73779494 0.41748523 0.85746210
0.24672312 0.22705293 0.39271235
0.13320643 0.00344923 0.89483249
0.24475090 0.61092912 0.15129372
0.15626488 0.56314709 0.71797942
0.42280235 0.25162131 0.35334958
0.88121094 0.10594405 0.02104703
0.53248424 0.43188548 0.64364502
0.63075892 0.74531032 0.43434559
0.28808367 0.11186225 0.23197243
0.01159069 0.11695072 0.88443248
0.02441766 0.61846639 0.30069037
0.10790930 0.49767395 0.99200041
0.52914452 0.11211352 0.37356915
0.51922179 0.10480561 0.92069309
0.89916834 0.62658795 0.50653260
0.61320503 0.72841347 0.76446884
0.00335822 0.09420270 0.39718460
0.22384458 0.13832606 0.96982195
0.07167498 0.59473956 0.47447620
0.17297354 0.67192558 0.99640884
0.63727037 0.11104477 0.27243732
0.67098098 0.99973750 0.66885770
0.48280782 0.39151885 0.42659832
0.77930285 0.71889091 0.91290483
0.15617190 0.99314047 0.33157385
0.08709985 0.10151407 0.99900371
0.30429245 0.67963370 0.02347397
0.16208563 0.99874797 0.69294693
0.69700613 0.02801303 0.35344765
0.83912362 0.24514848 0.92576565
0.83537478 0.80493956 0.46087573
0.63518809 0.73160124 0.97947580
0.18782133 0.17667142 0.51219402
0.21511205 0.36723977 0.03944177
0.20948438 0.63052007 0.29257933
0.92541591 0.64755750 0.20484546
0.61881243 0.24139425 0.34574523
0.99545745 0.11220196 0.59187693
0.67468886 0.52132072 0.34107060
0.77495423 0.57230878 0.83310463
0.16508048 0.40894942 0.76366687
0.15670937 0.52433094 0.33466940
0.10077426 0.73056332 0.80370791
0.23719037 0.84074697 0.58605603
0.83208075 0.65157473 0.02176227
0.85281588 0.20497879 0.52212100
0.57678408 0.59650027 0.50965415
0.74903756 0.88605498 0.73955470
0.39704131 0.01689597 0.03458449
0.26005753 0.30405740 0.59734832
0.02559453 0.90247114 0.09191027
0.33180898 0.90993245 0.70734252
0.66745186 0.26929207 0.94464319
0.60650890 0.26892404 0.64664055
0.63775614 0.89361359 0.25453927
0.23080313 0.66345332 0.57930286
0.12525535 0.49524115 0.19766584
0.30154707 0.37928932 0.47784085
0.32240690 0.83550835 0.99486854
0.39731712 0.87633699 0.26760754
0.64657095 0.55709690 0.76237511
0.63455584 0.38593024 0.73357445
0.61213963 0.86766118 0.01937777
0.77195470 0.67382095 0.41502599
0.00113051 0.34905140 0.16001706
0.89826650 0.26401170 0.36536040
0.12425186 0.99080136 0.08894033
0.99200111 0.89328887 0.60513461
0.52145229 0.39732214 0.06233865
0.61645422 0.38955462 0.51536724
0.72805190 0.84640237 0.12309822
0.10059656 0.86021928 0.72193722
0.24458381 0.40944591 0.23367206
0.00009648 0.32151670 0.65893054
0.19552518 0.77917233 0.10914112
0.35892206 0.99887155 0.83065436
0.40437126 0.34987284 0.24290583
0.63727884 0.21901025 0.46907643
0.49928264 0.88204563 0.12579225
0.51108664 0.64369273 0.32710502
0.59925874 0.37205703 0.26330405
0.23496437 0.52883836 0.85726616
0.12065124 0.86526786 0.23400671
0.11688099 0.75588482 0.60126104
0.76808653 0.61753089 0.23848469
0.73829873 0.32325290 0.59930250
0.65123564 0.99063022 0.17606914
0.74324577 0.11005062 0.74826184
0.67982871 0.25722091 0.10920304
0.47290957 0.13980600 0.69891723
0.59011948 0.50888211 0.92319268
0.32637745 0.56043580 0.75378595
0.83899786 0.23551294 0.09268858
0.61148569 0.91108938 0.50686234
0.82248460 0.51714046 0.15852182
0.77340653 0.56668072 0.67325831
0.30072249 0.97085083 0.36220067
0.36572136 0.10251880 0.72971009
0.39686795 0.57770238 0.00956223
0.52114440 0.65210390 0.65572520
0.74946672 0.09601853 0.17167337
0.73706806 0.15578590 0.60724888
0.73614129 0.66524862 0.10767413
0.94335121 0.64673139 0.72008125
0.48848536 0.21008634 0.13650936
0.36610201 0.00789999 0.63841344
0.34482630 0.58838820 0.24082994
0.34004589 0.73857395 0.54392533
0.96935902 0.14807711 0.12746857
0.88355918 0.23397321 0.72651214
0.85910763 0.74428054 0.10744901
0.83437473 0.45222669 0.75220835
0.23673142 0.91681109 0.16142856
0.40344526 0.24482729 0.64608163
0.05555917 0.76871132 0.13721777
0.33905949 0.42189820 0.78362298
0.73603395 0.36012877 0.02158014
0.85759410 0.00266162 0.70323375
0.96756771 0.59680296 0.08131329
0.92931688 0.72941739 0.61577953
0.24664699 0.09733839 0.83062315
0.16516182 0.35141208 0.48571130
0.47846228 0.62192646 0.13235809
0.38698605 0.50118942 0.59000310
0.71780157 0.14186076 0.00606452
0.60259039 0.06340999 0.48185208
0.80231444 0.98519039 0.86803838
0.90614614 0.52004932 0.60390178
0.16215390 0.09552510 0.23839096
0.25224073 0.11034595 0.66292425
0.36686158 0.49851404 0.14062934
0.13116408 0.83386673 0.49634953
0.83632636 0.01297809 0.33247480
0.00624314 0.33837583 0.84683588
0.10615142 0.73104689 0.36060200
0.78720560 0.82490050 0.58616857
0.74153051 0.39395980 0.21272299
0.43571051 0.44607790 0.90832903
0.12851298 0.96884527 0.53682768
0.24034675 0.74819882 0.88488917
0.66500987 0.51192885 0.16866683
0.30097487 0.21664705 0.08589072
0.88142499 0.96483695 0.46786714
0.96663829 0.87543042 0.95084201
0.31153674 0.50658720 0.36733297
0.33960456 0.00883666 0.20105734
0.27540241 0.83946128 0.40448579
0.10047934 0.13492025 0.75964786
0.83055215 0.48563674 0.33719063
0.75673221 0.17127285 0.41767718
0.74861877 0.90266522 0.35440919
0.76601169 0.64421725 0.55211741
0.07263478 0.48479751 0.60226523
0.27501694 0.35419290 0.91062788
0.45239670 0.78850704 0.37489954
0.48702853 0.65619296 0.87512737
0.98196212 0.40267349 0.37213208
0.00328835 0.54396316 0.89183169
0.52178598 0.86439812 0.70840588
0.76950920 0.86344610 0.97615513
0.35094263 0.19672663 0.52414608
0.37281620 0.26751417 0.96136958
0.13473766 0.83398101 0.00606927
0.37551764 0.72646049 0.17188098
0.87263284 0.38851186 0.48979130
0.92564165 0.74926675 0.86321590
0.84354909 0.92641926 0.24937764
0.64756110 0.00071381 0.83028458
0.46278127 0.11131240 0.53187589
0.38815697 0.28503317 0.79373971
0.38242345 0.86884565 0.48070129
0.58385205 0.77595253 0.15423985
0.88098193 0.36486413 0.26377385
0.85164799 0.01459174 0.14243633
0.98384555 0.91101882 0.37699690
0.87603736 0.16218937 0.24107034
0.16513752 0.23768192 0.08207472
0.49881254 0.34161384 0.85897285
0.45687907 0.97567785 0.36011350
0.49000471 0.84351305 0.85171058
0.76495963 0.32521904 0.42535684
0.69888335 0.46181201 0.64666707
0.88564215 0.80102851 0.32547933
0.67418385 0.73114492 0.59489168
0.35993722 0.61568230 0.63228191
0.12959463 0.61892329 0.87077450
0.62685478 0.87356265 0.63478823
0.87375835 0.37436553 0.87786351
0.37370938 0.12299766 0.12476977
0.37557751 0.37133992 0.36596252
0.63037441 0.63420211 0.38407525
0.12393723 0.36240046 0.14145912
0.12748739 0.37028532 0.62086703
0.61950591 0.64143646 0.87723644
0.86567844 0.86360339 0.86717932
0.13750306 0.13952105 0.37283043
0.64989860 0.10981415 0.89436946
0.62717465 0.36945746 0.13149747
0.85356373 0.12843248 0.63646914
0.37558982 0.87214304 0.87041940
0.99979399 0.99815654 0.99461775
0.00779987 0.99994331 0.48453883
0.97448687 0.49594322 0.00957216
0.98932150 0.50385847 0.48945278
0.50895907 0.99780280 0.98565781
0.50210152 0.98553184 0.49072271
0.50490786 0.51677669 0.00581797
0.50537051 0.47362282 0.51989262
0.97970163 0.25944629 0.26209751
0.00565255 0.22718502 0.75815252
0.02003369 0.73899694 0.25764445
0.98923997 0.77151443 0.74329809
0.51510702 0.26293650 0.25906818
0.50911874 0.26027394 0.74081629
0.48710497 0.75288166 0.24223298
0.47943869 0.74195359 0.75626594
0.24631864 0.01281186 0.25401813
0.27804789 0.02841306 0.73906023
0.23670888 0.51808853 0.24623987
0.23587073 0.49040925 0.75625639
0.74742120 0.00336044 0.24841360
0.75345680 0.99732953 0.76591177
0.75186806 0.50562047 0.25470311
0.73253006 0.48193860 0.75304498
0.25203688 0.26517690 0.99737995
0.25747523 0.27149519 0.49395004
0.23416714 0.76837360 0.99873115
0.22310549 0.75658222 0.50740161
0.75383030 0.25264177 0.01106440
0.74275223 0.24602055 0.51226507
0.75449288 0.76319726 0.01266780
0.74533219 0.75174844 0.50905386
0.45407925 0.17735154 0.43672533
0.48805264 0.21587958 0.91816878
0.42654735 0.70026258 0.44894150
0.42401235 0.68824631 0.96230146
0.94763918 0.18207573 0.43751223
0.95075586 0.18808281 0.95191235
0.91002188 0.72400960 0.41306423
0.91919341 0.69272900 0.96320482
0.19241414 0.06473213 0.05389591
0.20515477 0.05858598 0.55931709
0.18585626 0.57175239 0.04747041
0.17400029 0.55118002 0.56345678
0.68321497 0.04750049 0.08125822
0.68628736 0.06380874 0.56199364
0.68147583 0.56338622 0.06555059
0.68780781 0.55375431 0.57047175
0.33101487 0.04591672 0.45118165
0.31022582 0.05956107 0.94158856
0.29501328 0.57292751 0.45999146
0.31171962 0.57032497 0.93537765
0.81810521 0.05512705 0.44648327
0.79777647 0.04881693 0.96215469
0.80245430 0.55356483 0.44850401
0.80244256 0.56461855 0.95695833
0.05815279 0.19772852 0.07480958
0.06510593 0.20821558 0.55933430
0.05759106 0.69324867 0.04952710
0.01708850 0.68588724 0.53176695
0.58406176 0.20525610 0.05899717
0.55433113 0.17792445 0.56622469
0.54504609 0.69097633 0.07772921
0.56768663 0.70302116 0.55867896
0.12436186 0.12172033 0.89007393
0.12440927 0.62195316 0.36685027
0.64030601 0.12966439 0.39041751
0.45505205 0.44372638 0.19443353
0.42390267 0.44065070 0.70106065
0.44446994 0.95328948 0.19209469
0.44686222 0.95166017 0.69289479
0.91959118 0.43408792 0.19008967
0.93642277 0.42136450 0.68254877
0.94009772 0.93934715 0.18815024
0.95494007 0.93537719 0.70298121
0.20470851 0.31005083 0.29849605
0.19375150 0.31382654 0.81836423
0.18581733 0.80630565 0.31644214
0.18690775 0.80157046 0.79320311
0.69994387 0.32443308 0.31438548
0.67403815 0.29882773 0.82920767
0.68069203 0.80999405 0.32782576
0.70240221 0.78490930 0.81098139
0.31273302 0.32456969 0.18658812
0.31933685 0.31632889 0.70958527
0.31066048 0.82149306 0.20156377
0.30172205 0.78752846 0.67103624
0.80919195 0.29911438 0.18778821
0.79784041 0.31933373 0.71315044
0.79783038 0.81978895 0.20748221
0.81213706 0.78745772 0.68496274
0.04821183 0.44987744 0.28953055
0.04522269 0.44805567 0.81254642
0.05947681 0.94605927 0.30024497
0.09597486 0.95413052 0.79204884
0.55663364 0.45958344 0.32440657
0.55783938 0.44057343 0.82059395
0.55996667 0.97930406 0.30590457
0.55916104 0.92966841 0.80746352
0.13686060 0.87364678 0.11437972
0.11898598 0.88228012 0.61074494
0.62909915 0.37563970 0.62453331
0.61121664 0.88437404 0.13385968
0.21854611 0.19074287 0.18053420
0.18130965 0.21218317 0.69000262
0.19180926 0.70355762 0.18984610
0.16414070 0.68916127 0.68275333
0.67599616 0.19669172 0.21563092
0.67829852 0.19690399 0.70962095
0.67276720 0.70386032 0.20881176
0.69955276 0.66927677 0.69776763
0.43445553 0.07976480 0.28884125
0.44631388 0.06692297 0.80839119
0.43021707 0.56099858 0.32018978
0.44237160 0.54424483 0.82194937
0.93898708 0.05591318 0.29404443
0.95723494 0.06145311 0.80126998
0.92510074 0.56725309 0.29847204
0.91926211 0.55018613 0.79137405
0.05805345 0.05591840 0.17500568
0.07094487 0.06584667 0.66911147
0.02249108 0.57244234 0.18496498
0.04038828 0.54702405 0.68553232
0.55810818 0.08323061 0.18051417
0.57146084 0.06417668 0.71310116
0.55374533 0.58214819 0.22611248
0.55399191 0.54133705 0.69000414
0.31491801 0.19198678 0.31095985
0.30788196 0.18959086 0.80887608
0.29796198 0.69450908 0.31033634
0.29615534 0.67836717 0.79409272
0.80033793 0.19096928 0.31259790
0.80635244 0.19583059 0.81259957
0.79888044 0.70269219 0.31027502
0.82864921 0.67549637 0.80466008
0.39083602 0.12706192 0.62519906
0.36028046 0.62151851 0.12567289
0.86264891 0.12727700 0.13517545
0.85574707 0.63517658 0.13308611
0.86333093 0.62320533 0.61791783
0.20123810 0.44957939 0.42318802
0.20051619 0.45736790 0.93976904
0.19517802 0.94770878 0.43833588
0.19619179 0.93365653 0.94676899
0.69417854 0.44360393 0.44416425
0.68451636 0.44937930 0.95931053
0.69245247 0.95643943 0.44735754
0.68324978 0.93634952 0.95064034
0.44938171 0.29268801 0.05906228
0.43801040 0.30744367 0.54643683
0.41803176 0.80404365 0.07472241
0.43263234 0.80675028 0.57641626
0.94110426 0.30889412 0.06571534
0.92302255 0.29331997 0.54371708
0.95579712 0.81511613 0.06360722
0.93407070 0.82372130 0.53469346
0.05037473 0.31734723 0.43864676
0.05781745 0.31365376 0.94892450
0.05180422 0.80533780 0.43001430
0.04459731 0.79523090 0.91821847
0.56155585 0.29825211 0.45183467
0.56940260 0.33791184 0.96541494
0.54271884 0.82283015 0.44439176
0.53413953 0.79742567 0.95219167
0.29352237 0.45164883 0.06399618
0.29402284 0.44019088 0.56838189
0.31488702 0.94396671 0.05990679
0.30997651 0.92784624 0.56818454
0.80552867 0.44566001 0.06888025
0.79653555 0.43542099 0.57286218
0.80021823 0.92506825 0.07353230
0.80180380 0.94610142 0.56882163
0.38607809 0.35726258 0.86987460
0.38804416 0.87682398 0.37839731
0.86179906 0.37609372 0.37514955
0.86837365 0.90799414 0.36221884
0.25261641 0.99961971 0.99843440
0.26648408 0.99184766 0.50551520
0.25257322 0.51839442 0.99649183
0.23807820 0.50652994 0.50099688
0.74041175 0.98853085 0.01921774
0.75241758 0.00271914 0.50517722
0.74373171 0.50656260 0.01350563
0.74274918 0.49659824 0.51038849
0.26930312 0.25429644 0.24697319
0.24752268 0.25221303 0.75391729
0.24831506 0.76029171 0.25492753
0.23993508 0.74110219 0.73358754
0.74897085 0.25646185 0.25847382
0.74102566 0.25921863 0.76310390
0.73622958 0.76341427 0.26178605
0.76486915 0.73165427 0.75122448
0.00081758 0.00087809 0.23722387
0.01664004 0.00744356 0.74326860
0.97197962 0.50456190 0.24124980
0.98295224 0.48976969 0.74351425
0.49902960 0.02904622 0.24206500
0.50359587 0.00384574 0.75946754
0.49479438 0.51069546 0.26226388
0.49731682 0.49369895 0.75396597
0.00315543 0.25621088 0.01056630
0.00057097 0.25194812 0.49060960
0.99286347 0.75282039 0.99341104
0.97743355 0.75449858 0.47737961
0.52261109 0.25857591 0.00060201
0.49612752 0.24138060 0.50567502
0.48130641 0.75004089 0.01761852
0.48600208 0.75827934 0.50502925
Direct configuration=      3
0.11624683 0.26788495 0.28833770
0.16528747 0.24909584 0.90402163
0.23224882 0.67262094 0.42448221
0.24097525 0.47705782 0.63814724
0.59634863 0.09560537 0.04345882
0.60415951 0.20734387 0.81444439
0.87932576 0.42120728 0.01467326
0.73947153 0.41085243 0.85268007
0.24056922 0.23589262 0.38186378
0.10553421 0.01716776 0.89091052
0.27131418 0.56161385 0.15610272
0.16119121 0.59879314 0.74260874
0.43164406 0.23641451 0.33848732
0.91271323 0.09667134 0.01636098
0.52601292 0.40475450 0.63715891
0.66075068 0.75074973 0.41198167
0.32917680 0.07915313 0.27273870
0.03107286 0.14394081 0.85995091
0.03969772 0.60113910 0.31918767
0.09407221 0.49501687 0.02902250
0.53080163 0.09366427 0.39839010
0.52095171 0.10138646 0.89993915
0.91254318 0.62330627 0.50848141
0.61110562 0.73182157 0.77721394
0.01371038 0.10789193 0.42557481
0.24470515 0.14586857 0.94746841
0.09450876 0.62755742 0.49292592
0.15690726 0.65399297 0.99436591
0.63641819 0.07855530 0.26543848
0.67592160 0.01691900 0.67930504
0.49083355 0.39788092 0.42045946
0.76230624 0.70919361 0.90751675
0.15835094 0.00375480 0.35581811
0.10684860 0.11513863 0.98192432
0.29108425 0.65172544 0.05017210
0.17449268 0.98082135 0.69417528
0.72403183 0.03529509 0.36509284
0.84942500 0.25077756 0.92298850
0.83511378 0.77091843 0.44674675
0.64061208 0.69305066 0.01465322
0.16782897 0.16225757 0.52880664
0.20727784 0.37019348 0.03811986
0.18885222 0.61575156 0.28855654
0.91261760 0.64987183 0.24147157
0.60337694 0.22667749 0.33713974
0.99469378 0.11967815 0.59553863
0.65351227 0.51266766 0.31604461
0.79302806 0.56056946 0.84912303
0.16753550 0.42814056 0.76369804
0.14896457 0.51576718 0.37679189
0.10265506 0.71311403 0.76609050
0.22341797 0.82673918 0.58778624
0.82172834 0.65339146 0.01841889
0.86090635 0.23607148 0.53977030
0.57286625 0.59676962 0.48648284
0.75270599 0.88848016 0.75667158
0.38449779 0.03237070 0.02336654
0.22909803 0.29820196 0.62188438
0.00020716 0.90185632 0.08206573
0.32451558 0.89341639 0.75079500
0.68550302 0.25353509 0.92569621
0.59732476 0.25352548 0.64959131
0.61220955 0.89304568 0.25654839
0.23684733 0.66054423 0.58645872
0.12556685 0.49782116 0.20472467
0.27937582 0.35722023 0.46561040
0.32513546 0.82190911 0.00094380
0.37308881 0.85163687 0.25976865
0.65255801 0.57712494 0.74964212
0.64327934 0.40362742 0.73962093