Li192 P32 S160 I32
1.0
20.433000 0.000000 0.000000
0.000000 20.433000 0.000000
0.000000 0.000000 20.433000
Li I S P
192 32 160 32
Direct configuration=      1
0.09076663 0.25952198 0.32735782
0.14742897 0.24121431 0.90951828
0.22482333 0.67244855 0.42786927
0.23514039 0.48204643 0.64271433
0.57460716 0.05680924 0.07786118
0.58778541 0.15513334 0.76400117
0.89267949 0.40899292 0.00174096
0.74431478 0.41970152 0.84664448
0.23826277 0.24695847 0.38907646
0.10576970 0.01071414 0.88188157
0.25084322 0.60626351 0.15266937
0.16490404 0.57857069 0.74268368
0.39999084 0.24682418 0.35522398
0.89484430 0.10901298 0.01676321
0.53953357 0.44554979 0.63280935
0.66137879 0.75904034 0.42413467
0.33025763 0.09403886 0.25641346
0.01198267 0.14605022 0.86183799
0.00661427 0.63686236 0.35814268
0.11333272 0.47726027 0.02696590
0.51612222 0.12196423 0.37742146
0.50915838 0.09311141 0.91242979
0.90170185 0.61609017 0.50576845
0.61848750 0.72753107 0.76775052
0.00790634 0.09991152 0.40213898
0.23429263 0.14803994 0.96733757
0.09602639 0.62012256 0.49071701
0.15986597 0.67161653 0.99744628
0.64527677 0.09039922 0.26977642
0.66970331 0.99626999 0.67839057
0.49310201 0.40520333 0.40472295
0.77443661 0.73671877 0.89818037
0.16956792 0.00544428 0.34255555
0.09444589 0.10534661 0.99004272
0.31870403 0.68001253 0.02521042
0.15956323 0.98043146 0.71685698
0.71115887 0.04393321 0.37185441
0.82876838 0.25398514 0.92232013
0.83874676 0.78942980 0.44659954
0.64338232 0.70389410 0.99507350
0.15985624 0.17201631 0.49832543
0.23574703 0.36823825 0.04150225
0.19890673 0.61883049 0.29395079
0.93678365 0.64074330 0.21553218
0.60740978 0.23838231 0.34806994
0.99733885 0.10991776 0.59476724
0.66561462 0.50678885 0.32685086
0.75509345 0.57313804 0.84255323
0.16520776 0.41313408 0.76051249
0.10955103 0.51956417 0.37933117
0.11281659 0.71746128 0.78722335
0.24217722 0.84925049 0.59708132
0.84107274 0.65114153 0.01247725
0.85940939 0.22760192 0.51984354
0.59536545 0.59189373 0.50272183
0.77575112 0.88250214 0.76310118
0.37996189 0.02844791 0.02252456
0.22438597 0.27459632 0.61563486
0.01371294 0.88822825 0.11272080
0.28201907 0.89194930 0.76104739
0.66233947 0.25696832 0.92281016
0.59584511 0.27683102 0.64861421
0.59891845 0.87111128 0.24665760
0.23756905 0.66494130 0.58350449
0.13625398 0.50663031 0.20619744
0.32993648 0.33449304 0.49959395
0.32795665 0.83789163 0.00312704
0.39057634 0.86755597 0.27058229
0.65553381 0.57165554 0.74168737
0.64797950 0.40788148 0.73958868
0.61062525 0.88169565 0.01855899
0.75410488 0.65776528 0.42639970
0.99746434 0.35559614 0.14302925
0.89524132 0.26567687 0.35758796
0.11879233 0.98540271 0.10868296
0.00983709 0.88834020 0.60228936
0.50875778 0.38249674 0.06826094
0.61258105 0.39465367 0.51418950
0.71467609 0.80463723 0.11300340
0.09673016 0.85010443 0.72348736
0.23719577 0.40644451 0.22427640
0.00836799 0.32705583 0.64448499
0.22075388 0.79215370 0.11442063
0.34972975 0.99470882 0.83686303
0.40678335 0.35256709 0.24246694
0.63757666 0.21805709 0.48236176
0.50674723 0.89555563 0.11557342
0.49683667 0.64325520 0.35115910
0.59038660 0.35086501 0.24905655
0.22868728 0.53007624 0.86494519
0.08736464 0.86118981 0.24374138
0.13443015 0.76385659 0.59616042
0.78298739 0.61735889 0.23328332
0.73679303 0.33371199 0.58718262
0.70589586 0.95118605 0.16443821
0.73867602 0.11082768 0.76868465
0.66481455 0.24100092 0.09117859
0.48630618 0.13055092 0.64840228
0.59396424 0.50419566 0.90776563
0.32864420 0.58205943 0.75117847
0.83248133 0.23035030 0.09015506
0.59809665 0.90003855 0.51321251
0.83299195 0.51597505 0.15687015
0.82612828 0.58077785 0.71800654
0.31166948 0.97719070 0.35631947
0.36139796 0.11145414 0.74629311
0.40841485 0.58739534 0.02663336
0.48649511 0.65612108 0.65911899
0.76960485 0.08847510 0.17665381
0.74248536 0.17417880 0.59007913
0.74638110 0.65497760 0.10017787
0.96715100 0.62551078 0.69194325
0.48830179 0.17617020 0.14592912
0.35650557 0.00617320 0.65859195
0.34679071 0.60999013 0.25117999
0.34908869 0.73651676 0.52925828
0.98636574 0.14681756 0.14295091
0.87852362 0.22512841 0.72603055
0.84937530 0.74745432 0.10973390
0.84141309 0.42259623 0.74257930
0.21478445 0.90406594 0.21684058
0.38892560 0.23899116 0.64654984
0.08642249 0.75828517 0.14829727
0.33608810 0.40756898 0.77353377
0.72724564 0.36014056 0.02413292
0.83826478 0.00643190 0.67175752
0.96699279 0.60141541 0.08557886
0.89881892 0.73388872 0.62638694
0.23326756 0.08840497 0.83184019
0.16469065 0.34348152 0.49159053
0.48044720 0.62566519 0.15077743
0.39776683 0.50074095 0.59329623
0.72867270 0.13548924 0.99233186
0.61591537 0.06131744 0.47852510
0.84654425 0.00246726 0.83693360
0.89880031 0.50816544 0.60023511
0.17523349 0.09394248 0.23084167
0.25688173 0.09471964 0.66192336
0.35019355 0.51036057 0.16422451
0.14729594 0.85583482 0.50120654
0.84601471 0.00863541 0.34971314
0.99730322 0.34519898 0.84655861
0.10511642 0.74535077 0.36015823
0.76219162 0.83333552 0.58011225
0.73684639 0.39536024 0.21742357
0.38570299 0.47793520 0.90940382
0.10917116 0.99201366 0.58340141
0.25647192 0.76658162 0.88955360
0.66332108 0.51413057 0.16433262
0.29270276 0.22786878 0.09984981
0.88747818 0.92603817 0.48169070
0.96466293 0.88177546 0.96652034
0.28546011 0.49422100 0.35094405
0.32070012 0.99552898 0.16321915
0.27108192 0.83455897 0.41699318
0.10699395 0.14720937 0.76222095
0.82917882 0.48455819 0.33446085
0.74495504 0.17043818 0.41846440
0.74636760 0.90963390 0.35035020
0.77054082 0.65337660 0.58270695
0.08428685 0.49102769 0.58348778
0.26149674 0.34231083 0.90361972
0.45238146 0.79714693 0.38321399
0.48707125 0.65215551 0.86152777
0.98765495 0.39798491 0.37571382
0.01101951 0.53736892 0.87542245
0.50212503 0.84738867 0.66510209
0.78858111 0.85214994 0.99012699
0.29908641 0.15679189 0.53237228
0.36291306 0.28590221 0.97460291
0.14964673 0.84243141 0.00994102
0.38708769 0.74041279 0.15484906
0.89118390 0.39929228 0.48033678
0.95890033 0.76509705 0.86370673
0.83782885 0.92445656 0.25207427
0.67511719 0.98825155 0.84458244
0.41148073 0.09101117 0.52237964
0.40205764 0.26000239 0.84140472
0.39796759 0.89603563 0.49689162
0.58753423 0.76048095 0.15681674
0.88605333 0.36224703 0.25748728
0.89318750 0.01042048 0.11751734
0.97982782 0.89600570 0.37671878
0.88863996 0.15045512 0.23994738
0.15240228 0.25683437 0.07625525
0.48677602 0.37652468 0.88859577
0.45828534 0.96247146 0.38132334
0.49588060 0.85422239 0.86222723
0.76472588 0.33930602 0.41321889
0.71703482 0.46895433 0.63811700
0.87889347 0.79559748 0.30238992
0.65847371 0.74197269 0.58491909
0.36146313 0.62537719 0.62354068
0.12109113 0.61750495 0.87324287
0.63422890 0.86729182 0.63610622
0.86932932 0.37605328 0.87291892
0.36814739 0.11798724 0.12506905
0.36680916 0.37573753 0.37161715
0.62777709 0.63077765 0.37988974
0.12929479 0.38584676 0.12806939
0.13314302 0.37601099 0.62648633
0.62719501 0.62945682 0.87035513
0.86684042 0.86661470 0.87693368
0.13315714 0.13617675 0.36786707
0.63863457 0.12037020 0.88213027
0.63094704 0.37561371 0.12711796
0.86902231 0.13442868 0.62706374
0.36176583 0.86648344 0.87462342
0.00119427 0.00109836 0.01488857
0.00148511 0.00342266 0.49891000
0.98858086 0.50046843 0.00010696
0.99553820 0.50732895 0.48453950
0.50296008 0.98169250 0.99811888
0.50100307 0.99514843 0.50773671
0.49421586 0.49304219 0.99439367
0.50483542 0.49162232 0.50772597
0.98580813 0.25629788 0.24374081
0.00679738 0.24551013 0.75501315
0.00143927 0.75516875 0.25831736
0.99603778 0.75485105 0.73598593
0.49958910 0.25031856 0.26217460
0.49296482 0.24539446 0.73967123
0.48693260 0.75545917 0.25546282
0.48980034 0.74848070 0.76085946
0.25060833 0.00744052 0.25724922
0.27095368 0.01269225 0.74723977
0.25010378 0.52416736 0.24170480
0.24779171 0.49591230 0.75620952
0.75031977 0.00422303 0.26772451
0.75735874 0.99735866 0.75856980
0.75045453 0.50565500 0.24491082
0.74405592 0.49476630 0.75256169
0.24257859 0.26145972 0.99699727
0.24303199 0.25535534 0.50306117
0.23775929 0.76003069 0.00537826
0.23203248 0.76110353 0.51041647
0.74655001 0.24767026 0.00624176
0.74710827 0.25279741 0.50142080
0.75596605 0.74307620 0.01884275
0.74539385 0.74422330 0.50590059
0.43946277 0.18509175 0.44844780
0.44446848 0.19030268 0.93973482
0.43775753 0.69773568 0.44899168
0.42678385 0.68957509 0.95937817
0.94444195 0.19477736 0.43824548
0.93582196 0.19227308 0.94110157
0.93242152 0.70544381 0.42938562
0.93642483 0.68687063 0.94940800
0.18997279 0.06534095 0.05306667
0.19892319 0.06608274 0.55788540
0.18824087 0.56570951 0.06005221
0.18207965 0.55789825 0.55750350
0.69682881 0.05212321 0.07604039
0.69165312 0.06261094 0.57164273
0.68190253 0.56579696 0.05557890
0.69750776 0.55757959 0.55684698
0.31832644 0.06365658 0.44903628
0.30041184 0.05387588 0.93605700
0.29870332 0.57266322 0.44216217
0.31045198 0.56937240 0.95022856
0.80475824 0.06467306 0.45047951
0.80820129 0.05176967 0.95554222
0.81413073 0.55554907 0.43834552
0.80750804 0.55931034 0.94562439
0.05244884 0.19429906 0.05769736
0.06085104 0.20512244 0.55536597
0.05446056 0.68642861 0.06136830
0.03884768 0.70223635 0.55541911
0.56514637 0.17921391 0.05409256
0.55367542 0.19320881 0.56425042
0.54722024 0.68716673 0.07207979
0.55558948 0.68846252 0.56572066
0.12839610 0.12592968 0.87966850
0.12115865 0.63386974 0.38023517
0.63308638 0.13291024 0.38726173
0.45051096 0.44518887 0.18607919
0.43405231 0.44220915 0.69763416
0.43502626 0.95007744 0.19356614
0.44458505 0.94117700 0.70557654
0.93163701 0.44644202 0.18723052
0.94672451 0.42915206 0.67817566
0.94750165 0.94163401 0.19859293
0.94492398 0.94694334 0.68489016
0.19366455 0.31711399 0.30004167
0.18893778 0.30597074 0.81472993
0.18658963 0.82192245 0.31303932
0.18792973 0.81070656 0.79625350
0.69368568 0.31273332 0.30732781
0.68265924 0.31763040 0.81413414
0.68015644 0.81580171 0.31652128
0.70704209 0.79225546 0.80848168
0.30796575 0.31700840 0.18381976
0.30597617 0.30813062 0.70075058
0.30265396 0.81587519 0.20057470
0.30638211 0.80076308 0.68431756
0.80544492 0.30133747 0.19017184
0.80109817 0.31380199 0.69439654
0.80101256 0.81888856 0.20196112
0.81413341 0.79583438 0.68708858
0.05775648 0.45292481 0.29321759
0.05411892 0.44330574 0.80637886
0.06283141 0.95296185 0.31313111
0.07002847 0.94270848 0.79273426
0.55853348 0.44363555 0.31332108
0.55305595 0.44422545 0.81090410
0.55411041 0.95863673 0.31007181
0.56533005 0.94085695 0.81504689
0.12715400 0.86932717 0.13360275
0.12733446 0.88198670 0.61615090
0.63644314 0.38264672 0.62643136
0.61993828 0.87063870 0.13376833
0.19815836 0.19995984 0.17874462
0.19442929 0.19140232 0.69699396
0.18539352 0.70171901 0.19814379
0.17807715 0.69125656 0.68575365
0.69082071 0.18485475 0.20024883
0.68433178 0.19888636 0.69913530
0.68796262 0.70073994 0.19872150
0.69569785 0.67925694 0.68745630
0.43253015 0.06112419 0.31405882
0.44900386 0.06156245 0.81456770
0.43376317 0.55044193 0.31148459
0.43010922 0.55534657 0.81708554
0.94530218 0.06625786 0.30615335
0.95209878 0.05844480 0.80350236
0.92884595 0.56041017 0.30485525
0.93430635 0.55163533 0.78498811
0.06183699 0.06111534 0.18897638
0.06732049 0.06042538 0.68324754
0.03749406 0.57248892 0.18513792
0.05984411 0.55045202 0.68208745
0.54795774 0.07430463 0.19525939
0.56534300 0.05629699 0.69988684
0.56153654 0.56631492 0.20883077
0.54649482 0.55731843 0.69463309
0.30393032 0.19844306 0.30354873
0.30528623 0.18994665 0.81955011
0.29444164 0.69876950 0.32032579
0.29121531 0.68702786 0.80465829
0.80711160 0.19359271 0.31599606
0.80045610 0.20171104 0.81258582
0.80206075 0.70484406 0.31763905
0.81711744 0.67379113 0.79995083
0.36985377 0.12357589 0.62730839
0.36512339 0.62811667 0.13122179
0.87316156 0.12358197 0.12912139
0.85860039 0.63175540 0.13125401
0.87594445 0.61978200 0.61879822
0.19213998 0.44869176 0.42979457
0.20071783 0.44717344 0.95099839
0.20560159 0.94637665 0.44110099
0.18061168 0.93906008 0.94264802
0.69511209 0.44317970 0.43597023
0.68841643 0.44450655 0.94706768
0.68485306 0.95554015 0.44994746
0.69877384 0.93246053 0.95554827
0.44046582 0.28514092 0.07025366
0.43572125 0.30975797 0.55824326
0.43329787 0.80973470 0.06789593
0.44124059 0.80574882 0.56798610
0.93061271 0.30562657 0.05688733
0.94161705 0.31354241 0.54683049
0.94179114 0.80902422 0.06133463
0.92720118 0.82018773 0.54315127
0.06073765 0.31483462 0.43153002
0.05373747 0.31082451 0.94609191
0.05136105 0.81938093 0.43647237
0.05021806 0.80201552 0.94117775
0.55518328 0.30380892 0.44501280
0.55897665 0.31179979 0.96057696
0.55587360 0.80900314 0.44911093
0.55487304 0.79359022 0.95298960
0.31364322 0.45281203 0.06685336
0.29987612 0.44564844 0.55058383
0.29940942 0.94370957 0.05655312
0.31117332 0.94429234 0.56506507
0.79797282 0.44681486 0.06454108
0.80760808 0.43951921 0.55593763
0.80596327 0.93419362 0.07704651
0.80664511 0.94577071 0.56516853
0.37239277 0.36496881 0.88153840
0.37505579 0.88167810 0.38394726
0.87258592 0.37749884 0.37010036
0.86307840 0.88956359 0.37139607
0.23934952 0.99798112 0.99581962
0.25932849 0.00460754 0.50373897
0.25555379 0.50924644 0.00985818
0.24413680 0.50745038 0.49254997
0.75241467 0.99286529 0.01506430
0.74853450 0.00679395 0.51052166
0.74479475 0.50787523 0.00335750
0.75253372 0.50027190 0.49513231
0.25040345 0.25764753 0.24176147
0.25002472 0.24850364 0.75894894
0.24302834 0.75780908 0.25902781
0.24517949 0.74675898 0.74043553
0.74929278 0.24686901 0.25292126
0.74195803 0.26145036 0.75641380
0.74115890 0.76019125 0.25960914
0.75946543 0.73462450 0.74475505
0.00461898 0.00672816 0.25077622
0.00538362 0.00165153 0.74130105
0.98877465 0.50734626 0.24379457
0.99897663 0.49163843 0.73789618
0.49312121 0.01044287 0.25043219
0.50633689 0.99823383 0.75916940
0.50020283 0.50196626 0.25336220
0.48952589 0.50120973 0.75664050
0.99338057 0.25233327 0.99881773
0.00383896 0.25646664 0.49164363
0.99608572 0.74491244 0.00398615
0.99043759 0.76042146 0.49077947
0.50243845 0.24123868 0.00399562
0.49352966 0.24926653 0.50556647
0.48981470 0.74620823 0.01338252
0.49969396 0.74964095 0.50810183
Direct configuration=      2
0.08938394 0.25956288 0.32825104
0.14469819 0.24196745 0.91027007
0.22743559 0.67028082 0.42377635
0.23342538 0.48960323 0.64099648
0.57543461 0.05924769 0.07686961
0.60992713 0.22063376 0.79262955
0.89402440 0.41068109 0.00377378
0.74440416 0.42358535 0.84920451
0.23729630 0.24268433 0.38930795
0.10335540 0.01053118 0.88293410
0.25759622 0.60947230 0.14855025
0.16181593 0.58636162 0.74515920
0.39911164 0.24546012 0.35684973
0.89599763 0.10798811 0.01822124
0.53912274 0.44750021 0.63309871
0.65910932 0.76102178 0.42438698
0.33100044 0.09477269 0.25331244
0.00765887 0.14458070 0.86131019
0.03810204 0.62534290 0.29808697
0.11016153 0.47563307 0.02538508
0.51329735 0.11303390 0.38694408
0.50820528 0.09124930 0.90474708
0.90506533 0.61787129 0.50454200
0.61604117 0.72761339 0.76470822
0.00881893 0.10261380 0.40097739
0.23184190 0.14784339 0.96378817
0.09169559 0.61857364 0.48182018
0.16016351 0.67078200 0.99749226
0.63933542 0.08694191 0.27039947
0.67216654 0.99983798 0.67731211
0.49316170 0.40579797 0.40545715
0.76207629 0.73653061 0.89652455
0.17577483 0.00476344 0.34458681
0.09234455 0.10526484 0.99078519
0.32282763 0.68690842 0.02540417
0.15555145 0.98272946 0.69673593
0.71314032 0.04294691 0.37004472
0.82927067 0.25406476 0.92414512
0.83973787 0.79524955 0.45962252
0.64199093 0.70924001 0.99272326
0.16641402 0.16805278 0.50274070
0.23644674 0.36666085 0.04241748
0.20674919 0.61388082 0.29190253
0.89946923 0.65301470 0.23416371
0.60320521 0.23450752 0.34740769
0.99840211 0.11028347 0.59563431
0.66667706 0.50610386 0.33078409
0.75336683 0.57493903 0.84233798
0.16207948 0.41598710 0.75871725
0.11231321 0.51468802 0.37482917
0.09103189 0.74455832 0.83953502
0.24101566 0.84739086 0.59467550
0.84577530 0.65091101 0.00896271
0.85827248 0.22896003 0.51892947
0.59220235 0.59592569 0.50228591
0.77326211 0.88702231 0.76069450
0.37892035 0.03003727 0.01836067
0.22901137 0.27502936 0.61539804
0.01368782 0.88628469 0.10606874
0.27319221 0.89268119 0.75961295
0.66467630 0.26007494 0.93131858
0.59642689 0.27904431 0.64555872
0.60393737 0.87227058 0.24515680
0.23659821 0.66642203 0.58155854
0.15454147 0.51359646 0.17704031
0.32797027 0.33860447 0.49900078
0.32768199 0.83935478 0.00062466
0.38810830 0.86750185 0.26984557
0.65442877 0.57245555 0.74170885
0.64759152 0.41029490 0.74067267
0.60944250 0.88596271 0.01599962
0.75825230 0.66289156 0.42218142
0.99851039 0.35431320 0.14522154
0.89369445 0.26585999 0.35796172
0.11984620 0.98498989 0.10942945
0.00995360 0.89608901 0.60188436
0.51457442 0.37700614 0.05207957
0.61212419 0.39739838 0.51486240
0.71525039 0.80881702 0.10613754
0.09550011 0.85105113 0.72276915
0.23708195 0.40637031 0.23244450
0.00945163 0.32780966 0.64453429
0.22288782 0.79300446 0.11304946
0.34753281 0.99411417 0.83128158
0.40519981 0.35094692 0.24154490
0.63540095 0.21542838 0.48219902
0.50684273 0.89725719 0.11462944
0.52223815 0.63657393 0.30028198
0.58728815 0.34841306 0.24953071
0.22469005 0.53057445 0.86387588
0.08666938 0.85953290 0.24186319
0.12815307 0.76203373 0.60050660
0.76431589 0.61551808 0.23117860
0.73663225 0.33525060 0.58723403
0.71235909 0.94697085 0.16509854
0.73061311 0.11393781 0.77472574
0.66679961 0.24152823 0.09553050
0.47427953 0.12988245 0.70492727
0.59221351 0.50472149 0.91085286
0.32548448 0.58515069 0.75118657
0.83454043 0.23037924 0.09353933
0.59536836 0.90251288 0.51328953
0.83321924 0.51722595 0.15916943
0.82677390 0.58222784 0.71658867
0.32351598 0.98322596 0.35014231
0.34636976 0.10734705 0.74941243
0.40088749 0.58876674 0.01764704
0.48437323 0.65621074 0.65770634
0.76973087 0.08650083 0.17787163
0.74116244 0.17169080 0.58855255
0.74609454 0.65762545 0.09573534
0.96919355 0.62520962 0.68998086
0.48605300 0.17879097 0.14367248
0.35756966 0.00738571 0.65664354
0.35424533 0.61214566 0.24456758
0.34969710 0.73822571 0.52761577
0.98634676 0.14744101 0.14484325
0.87989602 0.22714914 0.72407216
0.85066146 0.74861074 0.10623921
0.84359439 0.42748981 0.74560574
0.21536441 0.90280639 0.21627667
0.39109042 0.24266173 0.64621678
0.08966277 0.75631674 0.14301349
0.33166159 0.41693032 0.77428900
0.72902957 0.36124199 0.02842538
0.85233793 0.02205941 0.69896931
0.96841143 0.60359312 0.10060599
0.90084397 0.73582566 0.62779001
0.22662448 0.08383200 0.83144107
0.16570713 0.34003809 0.49191477
0.48680618 0.60147812 0.12249930
0.39628881 0.50173409 0.59213803
0.72861404 0.13670016 0.99534496
0.61775145 0.05478520 0.47485093
0.83870004 0.00170970 0.84696685
0.90086535 0.50958461 0.59899831
0.17547678 0.09377951 0.23280326
0.25705517 0.09904700 0.65669384
0.35115725 0.51001782 0.15847433
0.14764359 0.84318200 0.49866722
0.84736023 0.00712461 0.34879557
0.99641614 0.34629518 0.84749611
0.10249102 0.74200366 0.36061908
0.75824458 0.83720984 0.57980475
0.73371657 0.39221009 0.22675590
0.38920413 0.47792415 0.91134534
0.12140832 0.97328303 0.54221108
0.25552918 0.76840528 0.88786066
0.66436245 0.51043082 0.16369907
0.29350783 0.22876859 0.09819062
0.88503615 0.92929744 0.48419372
0.97001999 0.88310166 0.95130371
0.31662772 0.50377540 0.33988303
0.32040914 0.99645744 0.16076545
0.26966799 0.83609382 0.41535080
0.10480756 0.14813226 0.76271416
0.83169549 0.48663964 0.33576827
0.74349520 0.16881268 0.41981372
0.74969950 0.90857828 0.35138376
0.77120510 0.65431388 0.57954334
0.08614332 0.49071921 0.58136406
0.25880344 0.34368585 0.90405394
0.45003544 0.79410612 0.38307604
0.48600129 0.65292564 0.85933910
0.98469257 0.39829184 0.37951414
0.00727669 0.54049873 0.87729298
0.50081298 0.84741056 0.66417580
0.79541652 0.85157115 0.98702572
0.32572730 0.16197321 0.52185086
0.36379007 0.28023208 0.96596155
0.15164172 0.84305143 0.01072228
0.39461853 0.73894158 0.15435646
0.88960176 0.39871671 0.48165017
0.91217897 0.74311566 0.83743349
0.84424494 0.91659931 0.25539386
0.67126935 0.99064585 0.84621121
0.45986091 0.11464171 0.55800035
0.37743758 0.27768455 0.81052436
0.39640295 0.89771170 0.49599383
0.58758290 0.76384150 0.15306668
0.88579882 0.36348421 0.25778683
0.89384391 0.00956102 0.12096514
0.98190564 0.90865731 0.38229055
0.88823852 0.14764542 0.24194766
0.15321901 0.25595831 0.07611863
0.48468719 0.35964277 0.87037210
0.46190796 0.95702875 0.37896701
0.49260376 0.85458092 0.85855412
0.76266903 0.33885765 0.41432524
0.71726963 0.47107582 0.63804984
0.89507180 0.78357640 0.33338714
0.65694250 0.74411439 0.58432640
0.35983984 0.62548566 0.62380296
0.11838445 0.61853399 0.87491050
0.63298854 0.86950444 0.63654163
0.86811177 0.37684864 0.87505379
0.36791379 0.11834420 0.12217469
0.36734831 0.37600025 0.37052937
0.63047801 0.63178334 0.37985320
0.13024577 0.38504864 0.12832160
0.13460683 0.37531116 0.62610519
0.62650044 0.63039111 0.87010171
0.86599175 0.86637368 0.87025777
0.13448272 0.13612402 0.36909469
0.63788233 0.12619875 0.88361102
0.62924671 0.37509099 0.12818533
0.86890174 0.13735093 0.62539143
0.35890542 0.86740440 0.87241967
0.00068838 0.00001616 0.01184382
0.99835617 0.00557757 0.49706838
0.98600458 0.50605883 0.00410625
0.99341296 0.50550697 0.48611134
0.50315607 0.98443783 0.99726960
0.49867398 0.99930149 0.50235800
0.49623627 0.50154475 0.00375820
0.50491712 0.49269129 0.50807018
0.98394598 0.25503844 0.24483454
0.00616877 0.24723128 0.75624296
0.00042655 0.75180809 0.25055532
0.99880446 0.75081616 0.73668504
0.49649266 0.24939699 0.26178824
0.49482442 0.26043646 0.74497792
0.49092915 0.76250239 0.25392932
0.48724155 0.74800847 0.75991064
0.25222711 0.00675969 0.25539887
0.26718075 0.01433068 0.74320406
0.25906400 0.52394918 0.23615956
0.24403443 0.49937684 0.75508213
0.75418399 0.00062073 0.26743020
0.75497993 0.00173194 0.76313907
0.74924004 0.50333064 0.24676580
0.74340292 0.49638095 0.75350279
0.24213954 0.26100026 0.99559871
0.24845654 0.25291533 0.50351123
0.23804316 0.76021786 0.00414668
0.23298625 0.75974477 0.50650741
0.74854335 0.24869169 0.01012433
0.74490094 0.25231681 0.50228320
0.75591315 0.74414875 0.01466359
0.74357547 0.74645195 0.50560246
0.43719135 0.18598958 0.45378284
0.44567800 0.18630633 0.93954103
0.43685141 0.69815998 0.45146751
0.42689085 0.69204819 0.95605615
0.94365986 0.19500392 0.43829635
0.93509236 0.19270959 0.94314682
0.92643780 0.71128453 0.42831463
0.93914371 0.68710055 0.93943366
0.18923439 0.06477923 0.05142959
0.19613455 0.06181279 0.56085922
0.18819924 0.56360784 0.06172481
0.18127938 0.55963417 0.55230709
0.69761967 0.05100764 0.07656993
0.68897247 0.06279566 0.56902948
0.68123385 0.56631405 0.05684973
0.69587070 0.55928247 0.55638778
0.31309298 0.06195586 0.44613996
0.29829323 0.05340567 0.93264279
0.29907986 0.56962310 0.43908141
0.30627674 0.56937796 0.94745025
0.80474564 0.06368746 0.45005584
0.80808851 0.05406345 0.95625647
0.81338149 0.55754497 0.43865309
0.80514575 0.55937060 0.94475992
0.05205154 0.19499022 0.05891321
0.06205390 0.20417596 0.55399455
0.05070844 0.68616638 0.05727404
0.03648867 0.70182370 0.54910322
0.56702985 0.18149414 0.05564537
0.55059323 0.19680767 0.56657754
0.54889477 0.68997161 0.06880460
0.55414903 0.69143038 0.56725061
0.12484075 0.12627469 0.88016461
0.12534819 0.63017356 0.37306897
0.63113621 0.13047061 0.38768406
0.44952499 0.44446527 0.18637921
0.43313464 0.44276799 0.69818976
0.43430865 0.94958278 0.19301918
0.44115407 0.93784206 0.70751151
0.93248120 0.44628623 0.18478630
0.94610511 0.42870874 0.67867923
0.95132144 0.93946361 0.19803014
0.94417349 0.94753374 0.68544638
0.19352045 0.31470587 0.30107638
0.18462006 0.30796161 0.81506060
0.18677611 0.81815679 0.31053253
0.18286120 0.81042127 0.79675030
0.69029372 0.30885587 0.31010391
0.68319960 0.31737274 0.81502291
0.68566978 0.81446987 0.31482848
0.70312608 0.79511685 0.80526422
0.30616338 0.31771755 0.18365844
0.30760725 0.30754522 0.70761500
0.30418307 0.81402198 0.19839249
0.30043897 0.80077431 0.68606848
0.80248448 0.30097905 0.19291277
0.80307555 0.31842672 0.69541631
0.79940000 0.82114720 0.19429328
0.81338459 0.79829811 0.68645853
0.05437905 0.44453917 0.29559212
0.05253626 0.44482322 0.80808776
0.06728667 0.95281004 0.31154254
0.06980671 0.94522783 0.79196458
0.55805070 0.44312914 0.31294412
0.55147999 0.44507864 0.81299138
0.55662410 0.96081721 0.30690637
0.56180430 0.94339461 0.81745872
0.12751612 0.86815721 0.13180408
0.12553675 0.88022454 0.61305467
0.63640941 0.38477548 0.62726877
0.62078167 0.87327628 0.13110340
0.19875074 0.19871502 0.17789039
0.19176016 0.19401986 0.69600842
0.18787084 0.69932413 0.19451251
0.17549757 0.68966675 0.68240685
0.68979452 0.18206604 0.20216785
0.68443844 0.20303916 0.69987434
0.68671376 0.70247445 0.19511478
0.69602738 0.67994877 0.68650320
0.43119297 0.05886286 0.31479704
0.44626246 0.06449945 0.80709117
0.43655209 0.55342970 0.31270809
0.42821401 0.55540435 0.81787770
0.94747165 0.06371961 0.30605454
0.94492621 0.05748602 0.80290432
0.93438273 0.55990120 0.30441477
0.93286075 0.55200064 0.78374445
0.06303489 0.06158923 0.18783186
0.06289529 0.06427637 0.68577545
0.04644133 0.56725153 0.18941296
0.06001860 0.54873440 0.68152656
0.54431987 0.07637173 0.19389454
0.56271484 0.05342053 0.69544424
0.55937923 0.56590556 0.20788351
0.54517023 0.55809475 0.69601613
0.30458784 0.19788202 0.30266448
0.29809532 0.18980882 0.82349876
0.29792133 0.69692250 0.31644658
0.28454931 0.68601370 0.80497190
0.80607452 0.19178782 0.31780128
0.80240932 0.20309345 0.81119287
0.80633292 0.70197317 0.30805786
0.81467617 0.67694070 0.80033373
0.37372236 0.12790449 0.63514190
0.37077812 0.62765538 0.12546170
0.87341824 0.12264924 0.13061755
0.85580514 0.63277690 0.13038127
0.87641876 0.62172837 0.61797386
0.19030090 0.44448662 0.43081610
0.19795790 0.44659490 0.95055565
0.19805223 0.94448860 0.44653346
0.17960222 0.93840190 0.94104116
0.69482797 0.44374198 0.43676419
0.68682443 0.44385608 0.94950704
0.68579951 0.95361107 0.44972658
0.70088708 0.93263271 0.95439710
0.44030232 0.28551707 0.06642400
0.43488141 0.31503360 0.55786921
0.43338465 0.81074632 0.06576831
0.43980246 0.80935840 0.56894976
0.93041561 0.30646197 0.05880522
0.94176559 0.31273375 0.54762405
0.93937448 0.81089483 0.04924346
0.92873455 0.82424014 0.54548313
0.05997886 0.31515357 0.43191571
0.05233076 0.31238389 0.94756855
0.04885448 0.82129959 0.43287297
0.05695380 0.80329404 0.94027672
0.55473013 0.30486493 0.44441600
0.55695159 0.31000400 0.95543006
0.55357063 0.81116942 0.44987125
0.55425983 0.79665521 0.95011698
0.31549672 0.45144227 0.06195932
0.29839748 0.44636871 0.55124168
0.29945817 0.94432154 0.05426777
0.31074016 0.94383858 0.56472153
0.79828431 0.44894170 0.06557484
0.80689580 0.44187839 0.55670974
0.80843272 0.93430605 0.07492809
0.80568683 0.94797722 0.56801166
0.36977779 0.36780998 0.87978441
0.37440514 0.88170390 0.38280605
0.86972578 0.37734714 0.37084771
0.86580215 0.88899373 0.37459513
0.23831359 0.99774548 0.99374674
0.25791166 0.00425369 0.50410104
0.25465309 0.50764109 0.00817870
0.24286498 0.50546508 0.48959495
0.75325947 0.99306908 0.01477323
0.74857246 0.00608877 0.51082538
0.74373205 0.50833758 0.00429099
0.75183823 0.50222400 0.49537380
0.25004709 0.25673942 0.24126731
0.24504280 0.24856239 0.76119467
0.24460347 0.75547235 0.25645354
0.23818022 0.74498806 0.73980845
0.74759048 0.24453610 0.25506652
0.74519124 0.26355033 0.75519757
0.74429665 0.76126915 0.25338627
0.75726587 0.73813802 0.74283260
0.00759498 0.00556765 0.24984894
0.00376888 0.00322581 0.74211539
0.99122008 0.50272056 0.24430162
0.99851350 0.49161195 0.73765082
0.49212442 0.01071251 0.24902852
0.50554835 0.99718711 0.75529651
0.49826855 0.50000400 0.25357096
0.48810587 0.50166308 0.75760060
0.99278700 0.25311380 0.00041170
0.00394934 0.25596838 0.49176043
0.99633706 0.74530491 0.99653932
0.98749984 0.76378949 0.48844722
0.50206013 0.23846132 0.00239641
0.49256253 0.25342186 0.50637747
0.49018538 0.74814734 0.01058488
0.49682518 0.75163877 0.50902181
Direct configuration=      3
0.10947432 0.23752344 0.27676844
0.14811913 0.24329022 0.91024510
0.22602010 0.67287158 0.42570551
0.23384435 0.48450904 0.64482132
0.59472303 0.08401760 0.01925353
0.58656104 0.15485728 0.76581106
0.89441679 0.40821246 0.00357533
0.74309905 0.41789863 0.84530439
0.23147407 0.23592262 0.38996065
0.10777548 0.01417467 0.88712449
0.26759409 0.54905579 0.14869175
0.16166494 0.57996950 0.74421501
0.40079842 0.24447016 0.35828757
0.90073611 0.09180353 0.02349079
0.51734694 0.39857354 0.62569213
0.64889256 0.75277089 0.42074015
0.33205047 0.08900174 0.26263608
0.01175737 0.14589020 0.86545514
0.01139616 0.62192756 0.36120343
0.11324420 0.48251731 0.03107979
0.51733955 0.11289347 0.38745988
0.50231820 0.09354384 0.90511276
0.90519039 0.61020704 0.50640009
0.62003320 0.72764912 0.76476979
0.00552922 0.09801878 0.40128132
0.23436720 0.15024637 0.96673001
0.09812207 0.61355651 0.48715358
0.13860222 0.70623073 0.97826795
0.64967839 0.09666800 0.27249124
0.67092666 0.99575221 0.67862385
0.49528790 0.40356446 0.40654816
0.76126997 0.72616409 0.90102145
0.16645733 0.00248619 0.34135216
0.09476864 0.10718952 0.99163145
0.27601541 0.66124172 0.04520323
0.16080747 0.97841137 0.71112526
0.71048349 0.03280138 0.36816442
0.83103462 0.25359299 0.92691261
0.85422854 0.77965059 0.44995290
0.64284593 0.72013742 0.99474429
0.16456061 0.16996776 0.50409506
0.23433874 0.36805018 0.04367961
0.19805570 0.62642719 0.28693714
0.93372749 0.64136442 0.21833507
0.60586468 0.23435526 0.34851666
0.99747345 0.10953556 0.59608399
0.66716162 0.50492039 0.33083725
0.75463654 0.56924557 0.84275645
0.16352095 0.41500634 0.76223537
0.15105083 0.51803286 0.35335104
0.11196895 0.71871192 0.79375128
0.24333896 0.85136555 0.59675787
0.84003075 0.65534032 0.01406913
0.85850566 0.22504751 0.52357088
0.58793391 0.59042730 0.50876421
0.77971159 0.88335467 0.76499003
0.38157370 0.03684119 0.02374319
0.23084340 0.27871804 0.61545940
0.00791263 0.90437382 0.10011652
0.28121179 0.89430221 0.76186361
0.66223300 0.25750359 0.92625490
0.60142027 0.26956894 0.65042479
0.59356356 0.86034922 0.24674164
0.23652384 0.66533339 0.58416096
0.12891644 0.50409558 0.21054936
0.28750794 0.36311516 0.47665618
0.32897451 0.83803562 0.00403917
0.38335411 0.86809079 0.26909792
0.65200012 0.56996237 0.74438266
0.64298220 0.40623322 0.74032476