Li192 P32 S160 Cl32
1.0
20.312311 0.000190 -0.000113
0.000190 20.312339 -0.000033
-0.000113 -0.000033 20.312424
Li Cl S P
192 32 160 32
Direct configuration=      1
0.11746371 0.25052185 0.36239609
0.08441432 0.99934203 0.90436890
0.07042932 0.61541123 0.48501524
0.13624618 0.51313168 0.86292150
0.53759972 0.10751218 0.44580549
0.50136614 0.15678205 0.82427737
0.64247931 0.72807523 0.44120429
0.59709358 0.71984350 0.81263849
0.02631612 0.12887542 0.44487405
0.11470593 0.09836841 0.98725035
0.99443489 0.66454970 0.34768027
0.24571151 0.61931831 0.88110084
0.65627984 0.11612033 0.25232855
0.69341655 0.14211192 0.95656218
0.51517507 0.63134498 0.38772367
0.58509793 0.50507973 0.90644571
0.07929066 0.03202645 0.36827429
0.11080218 0.17912381 0.77896593
0.11777803 0.66669491 0.26226663
0.11017839 0.59098042 0.98813348
0.55918830 0.22722380 0.34642938
0.61481599 0.23509948 0.86046321
0.65565212 0.52459729 0.32418695
0.72767955 0.62955714 0.88994140
0.03030449 0.14588091 0.28825458
0.15769685 0.21187506 0.91251237
0.14137059 0.74856251 0.40713766
0.15088446 0.73832890 0.91291516
0.75027127 0.10830670 0.33609896
0.53735780 0.05830424 0.93099747
0.61290989 0.55218255 0.46912089
0.50858660 0.61724133 0.85634840
0.19780921 0.11851745 0.29666354
0.00610932 0.13510939 0.86120836
0.15947403 0.53568688 0.34654188
0.13199382 0.60555154 0.76422426
0.70991247 0.23043891 0.40379413
0.66402193 0.02765602 0.85757534
0.74473178 0.62656160 0.37137283
0.65748165 0.69023936 0.97401239
0.17230654 0.13910024 0.46650058
0.21387787 0.05115923 0.83531182
0.19884438 0.63665974 0.44636980
0.01493423 0.65083381 0.86481207
0.62890770 0.01232627 0.40349569
0.63523290 0.09724879 0.74549528
0.62611735 0.69263364 0.29090522
0.67722485 0.59757774 0.76102999
0.12983323 0.38452979 0.01503925
0.12439339 0.43661933 0.52187510
0.09568456 0.87847674 0.00996950
0.08766471 0.91213089 0.50808652
0.63106267 0.26196662 0.12634677
0.61728898 0.48118942 0.63421329
0.61939602 0.75868795 0.12746708
0.65474142 0.90538840 0.72057222
0.01783043 0.40985079 0.09238892
0.24474843 0.35986651 0.62218539
0.23388229 0.90607994 0.15194192
0.08903178 0.82188865 0.72681401
0.61217966 0.34711599 0.23230117
0.58965045 0.35909872 0.72749312
0.73960827 0.84758983 0.08400993
0.59812384 0.90389354 0.50645951
0.08868459 0.34869906 0.23659399
0.12412743 0.26813092 0.62405487
0.15424907 0.75311622 0.09761951
0.13354177 0.99702003 0.66377838
0.52062459 0.36876834 0.12053313
0.50049904 0.39720543 0.60106281
0.58707622 0.88134596 0.01405285
0.74287832 0.87174997 0.56878402
0.18913782 0.45159146 0.15364384
0.14934092 0.47044817 0.70175414
0.02505182 0.83378457 0.15504971
0.14660358 0.77705572 0.59605995
0.66688151 0.35870293 0.01634015
0.65551305 0.35864971 0.51232698
0.51420621 0.84411353 0.15608060
0.51620699 0.87231247 0.64847552
0.04242313 0.27478051 0.13197964
0.10691623 0.34123338 0.74247478
0.08779316 0.97948417 0.11115312
0.99740931 0.87945087 0.64118543
0.73348176 0.40644591 0.17265703
0.63223722 0.25839764 0.59732437
0.61753603 0.86995744 0.23930193
0.63267406 0.76782244 0.58466938
0.20426681 0.28943266 0.11390056
0.00837737 0.39481920 0.61226051
0.14305546 0.92058391 0.23658998
0.21955900 0.88608976 0.66140190
0.60642350 0.49041138 0.09213665
0.74770222 0.40196006 0.66053892
0.63592293 0.96969983 0.13036329
0.64352954 0.99155437 0.64305251
0.35767982 0.11084432 0.24282937
0.33779315 0.10049721 0.53464866
0.40079351 0.64713238 0.23087913
0.43122522 0.50911827 0.61930327
0.84304572 0.14314564 0.00477587
0.80479657 0.22645277 0.60072785
0.97951716 0.59591479 0.08627134
0.00280443 0.65750836 0.64479462
0.39281375 0.00463112 0.10739435
0.34848019 0.10162428 0.75424254
0.43287316 0.51688564 0.07266560
0.35925028 0.72559255 0.60741139
0.89028420 0.14522963 0.23770283
0.88960412 0.10619154 0.51616527
0.86865331 0.51265611 0.17480117
0.75478375 0.62837426 0.64262459
0.42935658 0.21777842 0.15312986
0.44078100 0.03820106 0.59903691
0.34056763 0.66858078 0.01263526
0.40911849 0.59603612 0.51123009
0.88800627 0.01565644 0.10100436
0.87427727 0.14383073 0.73653224
0.90653107 0.72599427 0.14573930
0.85332523 0.57920563 0.71752798
0.25533771 0.09679626 0.15001594
0.35232143 0.23965850 0.59786110
0.34419930 0.49745962 0.17991993
0.49003851 0.65996855 0.63625262
0.85088130 0.23518549 0.09647525
0.92927078 0.02239498 0.62454362
0.74843412 0.59403786 0.14681331
0.84343714 0.68145478 0.52739941
0.33500897 0.12618940 0.02199125
0.47051664 0.16142466 0.65940082
0.42592978 0.71814881 0.14333766
0.38142637 0.62197236 0.74304325
0.98206339 0.10550627 0.07897936
0.75845478 0.09269807 0.62004962
0.85947830 0.63047220 0.01812829
0.89521292 0.72984072 0.69373068
0.47362591 0.10235045 0.05615132
0.25785682 0.09548660 0.65049049
0.27267230 0.60112712 0.14712502
0.26045736 0.57057108 0.63837660
0.76549482 0.09888333 0.14815477
0.96738223 0.19091005 0.61540739
0.89189004 0.64265273 0.24085930
0.89078788 0.52658217 0.58762655
0.49340568 0.39682588 0.42539378
0.35205244 0.24632424 0.90092911
0.40286709 0.86398245 0.27958066
0.39669861 0.99335430 0.91009350
0.90046227 0.40530149 0.27223687
0.98593889 0.31691211 0.86789891
0.76725754 0.83378080 0.39569211
0.95848322 0.85537182 0.81615344
0.28576825 0.39163852 0.30757379
0.38658541 0.47683057 0.88441431
0.41573909 0.98432570 0.37698983
0.34779146 0.89600899 0.75838685
0.90453668 0.50209637 0.43353471
0.76290723 0.40620960 0.85155638
0.79711197 0.92498836 0.28695760
0.80285317 0.87714943 0.76069338
0.36047657 0.25337156 0.38380153
0.28887813 0.39053923 0.80306370
0.27577812 0.87425491 0.48069580
0.37910819 0.85375542 0.98952653
0.00282663 0.41124239 0.39257275
0.88120592 0.36425151 0.76448918
0.91285904 0.87289064 0.25435501
0.85088791 0.72719284 0.88927778
0.34212306 0.49235045 0.36231655
0.47514345 0.37301878 0.92054178
0.34332231 0.77196190 0.39857469
0.39153212 0.75157701 0.86911383
0.84187768 0.33352168 0.48175915
0.89027159 0.40741628 0.99629046
0.89628853 0.00071476 0.38766905
0.74119591 0.83434315 0.90243517
0.30398253 0.35425559 0.46967081
0.31611891 0.35575733 0.98607370
0.45120761 0.88920792 0.47546001
0.26847300 0.83810067 0.89065298
0.90728976 0.26781788 0.36217111
0.84779902 0.25505150 0.90707763
0.91669404 0.78068630 0.37784243
0.88265669 0.85379777 0.98209618
0.45231418 0.36857829 0.30034349
0.42468443 0.31003920 0.76312421
0.26028736 0.93843764 0.35558413
0.49944794 0.84499915 0.82783096
0.76332621 0.40411663 0.33223801
0.97237547 0.46062620 0.87577709
0.89197054 0.89561162 0.47763430
0.86658844 0.97107632 0.89630951
0.00395253 0.99319027 0.01342198
0.97449619 0.99567950 0.49175411
0.01139858 0.49449936 0.01357055
0.00756609 0.51049396 0.48399412
0.47150269 0.99889951 0.00513230
0.50009507 0.00291108 0.49024815
0.50635340 0.48049734 0.99546017
0.50263081 0.48834565 0.50130821
0.00084183 0.25493105 0.24897480
0.01065482 0.23804054 0.75877270
0.97438811 0.76065844 0.24366210
0.00029521 0.73911729 0.73943082
0.51900678 0.26222396 0.23820277
0.50377553 0.24341101 0.73644580
0.52393655 0.75013518 0.22528496
0.50287671 0.74682960 0.76588461
0.22470898 0.01897553 0.26030499
0.23359785 0.01249292 0.73028699
0.26728222 0.50406491 0.25258470
0.23470753 0.50485850 0.75648845
0.74029242 0.02140861 0.22724973
0.70798072 0.00316320 0.74320900
0.76974031 0.49754673 0.25394334
0.76677481 0.50816713 0.74232000
0.25436034 0.24366958 0.98378836
0.24620274 0.25085062 0.53672784
0.24528533 0.74932697 0.97376577
0.23021182 0.76388658 0.49744656
0.77363165 0.23509330 0.99870526
0.74099027 0.28005113 0.51262393
0.74883102 0.75681005 0.98737899
0.75121589 0.78037656 0.50557289
0.44550393 0.18203259 0.44102401
0.44845857 0.18391406 0.94934880
0.43000557 0.69613917 0.45092495
0.43901786 0.68299988 0.94472616
0.94883276 0.20108154 0.44927752
0.94468428 0.19351863 0.95108621
0.93721051 0.68895035 0.44783107
0.94286651 0.68596739 0.95172702
0.19168503 0.04841151 0.06361276
0.18546477 0.05827051 0.55720889
0.19332964 0.54825188 0.07589464
0.17631529 0.55374422 0.53348534
0.68442075 0.06201566 0.04805763
0.68064152 0.06677361 0.54306832
0.70483283 0.57605052 0.05031143
0.69568113 0.55850438 0.55839609
0.28355046 0.05958189 0.43141367
0.29804051 0.05011481 0.93238605
0.30657457 0.55783153 0.44317275
0.32895865 0.55657001 0.96606704
0.81068223 0.06902248 0.44416986
0.79086599 0.05922945 0.91274257
0.81457050 0.57596679 0.44728950
0.82589742 0.55008782 0.93357024
0.06337134 0.18833240 0.07113207
0.06933755 0.18870621 0.54583708
0.06250462 0.68189188 0.05626932
0.06373963 0.70829302 0.55522192
0.55562462 0.18265477 0.07479129
0.55735184 0.17929841 0.56147581
0.57302938 0.67903591 0.05792080
0.57125697 0.68423199 0.53636396
0.11011400 0.13853899 0.37340799
0.11972084 0.10930437 0.87630127
0.11452473 0.64464505 0.37603780
0.13237122 0.62904793 0.87712210
0.63334017 0.12591524 0.36766058
0.61147853 0.12235668 0.86733458
0.63083725 0.62081556 0.37497096
0.62302366 0.61980327 0.86454488
0.45245595 0.44680916 0.18926279
0.43309971 0.42692813 0.69849077
0.45366674 0.93501135 0.19556004
0.42861861 0.95432099 0.69260901
0.95921265 0.44711028 0.19035364
0.92878108 0.46525231 0.69670857
0.93353620 0.94535805 0.17730935
0.91775993 0.92115682 0.71970951
0.19061109 0.31410920 0.30358638
0.19482724 0.31154375 0.81708778
0.20749032 0.82315614 0.29122395
0.18614995 0.80084794 0.79217505
0.69959710 0.31684370 0.30987894
0.67952751 0.30790619 0.80754818
0.69292354 0.80606636 0.30507105
0.68377354 0.81424120 0.78666215
0.31460341 0.30748694 0.19795751
0.30923776 0.30906556 0.71389995
0.33150826 0.81995181 0.18710081
0.29943517 0.79826462 0.67270746
0.83027190 0.31041531 0.20004401
0.80843993 0.31243538 0.69122864
0.80892004 0.81652195 0.19329154
0.80383960 0.80019192 0.67993929
0.07164191 0.45249436 0.30217415
0.06466816 0.44289033 0.80023561
0.03999288 0.93542585 0.29399449
0.04693393 0.92000909 0.80994170
0.55423079 0.42990885 0.31413954
0.54928552 0.43226998 0.81696957
0.55722050 0.95044053 0.31781935
0.55863905 0.94649926 0.79799281
0.12138673 0.36508926 0.12675977
0.12640672 0.38799364 0.63421205
0.12700404 0.87206600 0.13020152
0.11026251 0.88530099 0.62217003
0.63346867 0.37043688 0.12567029
0.62157341 0.37149757 0.62112685
0.62715835 0.86895390 0.12752513
0.62721891 0.88599888 0.61301041
0.18773261 0.19954758 0.19250262
0.19799153 0.19299046 0.69461312
0.20852464 0.69453631 0.18384184
0.18833309 0.68557745 0.68245334
0.70307019 0.20519592 0.19139384
0.68793723 0.19653143 0.69071078
0.69277471 0.69033122 0.18917627
0.67099310 0.69705753 0.67888217
0.44837782 0.06494388 0.30115232
0.44547619 0.05763802 0.81794663
0.44869975 0.55325078 0.32452342
0.43727291 0.54655560 0.80841823
0.93749605 0.06299909 0.30407793
0.91986616 0.04232400 0.81435988
0.94710873 0.56123856 0.32146755
0.94920069 0.56422237 0.80932347
0.05053063 0.06064876 0.19579218
0.02689081 0.05190886 0.69789751
0.04915618 0.58287490 0.19304885
0.06054164 0.55499137 0.68219529
0.56000772 0.06548172 0.18617442
0.54579202 0.06743671 0.68256863
0.59097570 0.54479355 0.20400468
0.55144324 0.54876793 0.69288790
0.29425589 0.18978730 0.31283127
0.29608628 0.17707710 0.82435783
0.32151042 0.70853681 0.30595556
0.30792756 0.68595019 0.79979858
0.81814308 0.19830716 0.31393223
0.80717714 0.20145904 0.80963065
0.80846257 0.69574979 0.30445553
0.78955519 0.68123247 0.79069062
0.37700910 0.12265211 0.12208188
0.36774378 0.13335515 0.63265128
0.38457423 0.60431315 0.12917464
0.39072890 0.60985581 0.62264599
0.88280616 0.13048593 0.13062331
0.87187338 0.12568601 0.62249770
0.86914830 0.61885583 0.13169001
0.88654444 0.64043317 0.62377129
0.20767623 0.42908724 0.43213434
0.21396801 0.44476570 0.94842340
0.19072739 0.93659091 0.44739509
0.18574606 0.92552885 0.94874766
0.69899376 0.45859483 0.43378519
0.70297267 0.44171478 0.94818595
0.70426418 0.92768653 0.45113893
0.67818604 0.94453617 0.93509670
0.43997250 0.30053452 0.05731282
0.44850785 0.29661257 0.56785110
0.46673230 0.80047152 0.06280439
0.44968554 0.79476975 0.57899187
0.95694742 0.30818900 0.06079030
0.94645972 0.30571718 0.56312129
0.94956346 0.80830518 0.07008514
0.94353107 0.81628440 0.55463463
0.06382464 0.32020336 0.44244824
0.08059178 0.29817650 0.95181766
0.04277395 0.81328668 0.41884882
0.04633242 0.79982479 0.93494998
0.56379291 0.30201162 0.45660898
0.56464552 0.30181726 0.95003402
0.54816049 0.81957233 0.44151230
0.57143558 0.78796862 0.93376184
0.31203989 0.43377721 0.08073492
0.29898543 0.46236604 0.57259098
0.31048604 0.93453914 0.05340652
0.32335709 0.96541343 0.56154388
0.81065386 0.45661966 0.07685684
0.81481591 0.44028439 0.54889425
0.79903919 0.94387270 0.03921016
0.81632676 0.96226659 0.56774432
0.38186591 0.37962259 0.39817013
0.37572200 0.35597936 0.86808491
0.36604950 0.88324038 0.38792182
0.38663915 0.86603482 0.86621204
0.88911429 0.38021435 0.38307597
0.88591026 0.37030187 0.88609876
0.85917119 0.88234775 0.37190897
0.85456474 0.85081895 0.87712622
0.24810555 0.99110078 0.99806180
0.24931213 0.00375586 0.50386546
0.26252764 0.50037362 0.01864638
0.24969844 0.49722986 0.49274824
0.74085325 0.00777876 0.98469624
0.75006426 0.00540574 0.50100912
0.76263759 0.50611186 0.99981578
0.76185551 0.50727166 0.50223649
0.25043505 0.25415456 0.24710692
0.24929337 0.24666101 0.76004895
0.26399469 0.76257501 0.24096951
0.24663100 0.74084370 0.73615812
0.76214562 0.25940206 0.25141240
0.74555836 0.25274080 0.74882920
0.74785838 0.75086391 0.24449522
0.73643605 0.74951910 0.73580155
0.98488743 0.00131687 0.24061158
0.98133210 0.98283960 0.75719766
0.00841639 0.51289476 0.25457215
0.00045435 0.50834592 0.74618202
0.51147180 0.00280968 0.24720602
0.49288483 0.00697479 0.74786606
0.51227303 0.49951017 0.25740999
0.49770361 0.48489493 0.75201802
0.00916844 0.24468887 0.00372702
0.01156823 0.25917368 0.50188608
0.00123101 0.74549752 0.00874167
0.99792639 0.76005089 0.49481366
0.50519385 0.23821212 0.00799725
0.49921031 0.24328112 0.50957250
0.51206880 0.73034010 0.99783144
0.50326781 0.74960198 0.50042814
Direct configuration=      2
0.07906631 0.24176873 0.37489289
0.05655226 0.01566477 0.90078708
0.04387960 0.59442292 0.44947248
0.13223127 0.50209014 0.86013727
0.54075417 0.10517345 0.42538403
0.49285174 0.15269147 0.82595066
0.64080723 0.74389482 0.43519046
0.62131681 0.72461700 0.84038555
0.08547599 0.10473707 0.48660647
0.11148691 0.08932178 0.00539963
0.00117254 0.65224056 0.32697239
0.25231372 0.65327351 0.90464585
0.62553794 0.13376791 0.25673401
0.68384730 0.14030416 0.95125079
0.52146972 0.64782682 0.37188181
0.58440062 0.50685034 0.88721585
0.11147133 0.00291127 0.35195112
0.11480590 0.11946914 0.75734004
0.12098124 0.66585051 0.27072243
0.10263729 0.60315517 0.99042220
0.52493320 0.21275536 0.35193572
0.62611075 0.23954964 0.83737786
0.64474786 0.54060349 0.30731830
0.74364815 0.63213754 0.88121380
0.05219357 0.13731282 0.28095965
0.15011719 0.21061057 0.91004189
0.13694557 0.75001637 0.37862607
0.15462442 0.72621435 0.90969831
0.74807768 0.09608110 0.33211446
0.52124233 0.08169296 0.92671668
0.62071082 0.57136708 0.46793618
0.52749329 0.62508844 0.81771443
0.21405085 0.10308594 0.31090211
0.99922455 0.15541514 0.85368648
0.19277778 0.54781156 0.37866850
0.18349389 0.61277732 0.76734217
0.68228065 0.23488512 0.40932430
0.66867336 0.03050265 0.86944982
0.75479554 0.61321238 0.38374856
0.64608121 0.67044070 0.98187498
0.20644133 0.15143014 0.43153908
0.19497061 0.02846484 0.84138559
0.19141536 0.64994993 0.46785895
0.02443535 0.67749517 0.85433882
0.62410652 0.02566777 0.37248038
0.61659622 0.10493038 0.75634542
0.60394336 0.66273151 0.26327624
0.66939619 0.56495878 0.73831603
0.12545966 0.35856276 0.01429788
0.11190666 0.43847630 0.52354550
0.09432349 0.87991327 0.00536602
0.12047985 0.87800539 0.52738584
0.63217173 0.27085625 0.12765541
0.60528448 0.47772748 0.60329016
0.61689724 0.76691779 0.12050585
0.66869945 0.88596827 0.72862753
0.02492136 0.41289919 0.09459176
0.24192560 0.40119773 0.65055991
0.24258493 0.88417819 0.12388740
0.11053661 0.82401879 0.75157947
0.60369366 0.36610209 0.23971636
0.59665546 0.34573148 0.72281177
0.73142465 0.87315101 0.13312520
0.58033372 0.90471278 0.49901613
0.08812142 0.38053794 0.23573030
0.14357527 0.29329600 0.53722401
0.13929785 0.75608003 0.12656367
0.11352489 0.98232733 0.62250320
0.49800435 0.40122007 0.09589741
0.50813790 0.39485262 0.58607754
0.58140234 0.89771953 0.99982744
0.72779583 0.88190394 0.59754852
0.22826705 0.38402489 0.16244964
0.12521704 0.46960426 0.69663202
0.03443424 0.86069499 0.17379812
0.17295660 0.76836063 0.58895169
0.61337727 0.37073622 0.01843045
0.68107211 0.34831550 0.51801089
0.50179564 0.89481799 0.12051903
0.51394928 0.85266675 0.65265122
0.04453663 0.27838964 0.14512088
0.09214709 0.30832689 0.71475594
0.11178190 0.98261748 0.10258306
0.01842607 0.85683665 0.62960842
0.73418261 0.39228161 0.15700632
0.61352726 0.25293757 0.61384188
0.59986021 0.84545574 0.22743600
0.64547411 0.76577380 0.60879278
0.17884002 0.25776578 0.09929855
0.00651674 0.39351939 0.62101529
0.15136506 0.90417825 0.24568680
0.23851370 0.91580120 0.65703434
0.61604221 0.51227491 0.11959567
0.74029455 0.40839409 0.65348852
0.64824811 0.98513738 0.15748894
0.62318610 0.99083380 0.62983494
0.38069831 0.10458241 0.24450852
0.36564927 0.13303399 0.51080861
0.31212904 0.61140123 0.24389598
0.45162127 0.52980954 0.61337616
0.84438207 0.13874381 0.99844998
0.78686166 0.20691718 0.60750357
0.99115792 0.59323511 0.10480736
0.99105591 0.64717199 0.64298201
0.39653299 0.00811835 0.07932784
0.35083563 0.06125023 0.71729155
0.42842996 0.55577802 0.02153060
0.34584837 0.74493041 0.60656617
0.89691577 0.16723818 0.22506580
0.88463181 0.14841002 0.51261035
0.86244735 0.50089237 0.12630047
0.76574020 0.61697995 0.64575096
0.40717215 0.23175065 0.13393043
0.45024480 0.03439111 0.59931549
0.37510071 0.67873188 0.02178331
0.38545608 0.62065871 0.50393619
0.88526179 0.00970744 0.10879006
0.88825083 0.14356108 0.74650993
0.89873850 0.72265288 0.12409607
0.84424048 0.57870643 0.72741325
0.26916213 0.10900039 0.13889279
0.32995116 0.23718380 0.61685407
0.35995499 0.51242446 0.15087025
0.47739148 0.65794777 0.66097776
0.83033865 0.23131531 0.10302802
0.92693154 0.04415466 0.61234501
0.75206747 0.58404307 0.15351446
0.84553816 0.69690067 0.52747205
0.33521767 0.15578200 0.02935675
0.46102748 0.19996861 0.64111641
0.42213433 0.73448419 0.16803257
0.35570734 0.58863849 0.73665457
0.99375568 0.10678540 0.08832901
0.80264097 0.06106102 0.63913375
0.80533543 0.65101169 0.03758379
0.87223169 0.75209659 0.64605427
0.49960738 0.10182349 0.10567518
0.23911790 0.11828710 0.63463339
0.26153340 0.64752287 0.10306054
0.29460937 0.55163428 0.62319906
0.77208973 0.08788865 0.15817592
0.97012923 0.21056910 0.64003818
0.86511033 0.62454918 0.25075415
0.90438064 0.53070014 0.55889080
0.47798916 0.40354574 0.42916271
0.36204039 0.24345989 0.87956632
0.42291069 0.86775657 0.29146167
0.39691606 0.98358639 0.90204424
0.87595287 0.40482504 0.27359644
0.98224996 0.32686231 0.83663201
0.77477878 0.87283053 0.43421629
0.96845074 0.84980926 0.83205300
0.28130900 0.38228510 0.30010107
0.39492154 0.47551515 0.90981342
0.42020973 0.98500458 0.37945013
0.34539825 0.90859489 0.76884390
0.90514234 0.49147650 0.40455726
0.79297828 0.43336546 0.87516592
0.81150859 0.91658415 0.28386872
0.83262739 0.89710959 0.76435809
0.36320653 0.26536026 0.36681145
0.28764046 0.39592284 0.81595838
0.28288303 0.87437297 0.46972371
0.35568646 0.83370566 0.97543345
0.00121668 0.40543490 0.39165260
0.87438138 0.38857211 0.75971693
0.90740234 0.83465072 0.25941869
0.84957718 0.74726922 0.89893868
0.36593782 0.50236846 0.35716024
0.48923671 0.37773600 0.90181996
0.35668976 0.77695671 0.40813631
0.40565610 0.74570240 0.82647670
0.86252705 0.35355548 0.49129130
0.89443715 0.38898541 0.98502142
0.92547330 0.00670500 0.37890661
0.75409652 0.84216369 0.92100632
0.29406361 0.35855761 0.47050872
0.29057832 0.36397262 0.97174426
0.41975025 0.89955218 0.49124397
0.25961120 0.84515940 0.90583004
0.90599208 0.27600636 0.33609960
0.83828533 0.27506273 0.91052035
0.92107395 0.79815922 0.39433927
0.87740658 0.86158900 0.99693402
0.44243051 0.35597867 0.27583006
0.43412761 0.34446536 0.77775267
0.26667885 0.91620300 0.35249566
0.48487650 0.85042992 0.85890002
0.77547475 0.37171021 0.35229514
0.93014652 0.48796925 0.88329699
0.91641293 0.92172483 0.47690854
0.86279290 0.98555659 0.88645889
0.03456873 0.01207363 0.02343500
0.99272436 0.01491941 0.47666757
0.01611471 0.49802491 0.98972724
0.99130769 0.48671696 0.49200683
0.48549625 0.99885284 0.99907574
0.48614186 0.99701686 0.49232601
0.50508077 0.46609458 0.98705887
0.51296799 0.49422375 0.52577347
0.99322189 0.25049881 0.26439977
0.00526121 0.21281026 0.76667013
0.98723279 0.74987401 0.26810226
0.99982146 0.75286438 0.74607583
0.50593284 0.26907730 0.25176488
0.51017571 0.24394834 0.75034557
0.51094372 0.77828125 0.22881009
0.50194132 0.72678352 0.75988744
0.22927982 0.98282233 0.26155398
0.24987350 0.01091498 0.72555735
0.28191373 0.49552617 0.27508658
0.24550511 0.51843427 0.74366318
0.74206457 0.01000545 0.23932967
0.71373447 0.01030071 0.72618971
0.77237975 0.47759551 0.23606488
0.75713998 0.49695524 0.72309690
0.25287940 0.24736987 0.00558441
0.26284533 0.25135235 0.51722649
0.25825043 0.73865201 0.96728135
0.25172536 0.75145884 0.48436252
0.77428474 0.23692553 0.00909676
0.75403797 0.26639739 0.50318401
0.74864679 0.71911062 0.95535032
0.74373682 0.76592579 0.49427286
0.43959372 0.19078381 0.43541462
0.43776535 0.18334689 0.95842655
0.43752137 0.69214935 0.43368739
0.46085826 0.66467578 0.93569599
0.95039379 0.22192091 0.43341813
0.94818548 0.17022051 0.95567278
0.95151122 0.69353175 0.43983454
0.92617156 0.67728466 0.97241336
0.20450475 0.04988001 0.05596936
0.17440497 0.05712816 0.54298170
0.19217924 0.56514836 0.05981692
0.18667111 0.56181458 0.54889120
0.68269851 0.06928639 0.06164205
0.70462179 0.08564986 0.56517730
0.70087090 0.57370987 0.04548781
0.69228568 0.55784441 0.56467252
0.28960512 0.06820640 0.43394868
0.30990213 0.04712634 0.93258137
0.30161338 0.56550540 0.43521363
0.31612664 0.56164316 0.95052318
0.82197883 0.06581561 0.43453541
0.79426039 0.05007295 0.93885675
0.82705857 0.56041540 0.46475602
0.81268912 0.54148600 0.93963241
0.06189091 0.19020510 0.06232217
0.05836556 0.19768766 0.56492013
0.06103110 0.69372469 0.07015308
0.06541098 0.68206817 0.55907419
0.56011043 0.19996517 0.06668486
0.54169639 0.17782246 0.55455771
0.55650097 0.68668098 0.06623473
0.56983964 0.70484621 0.54259197
0.11462732 0.12862689 0.37814879
0.11212390 0.10969771 0.88187258
0.13182930 0.64094974 0.38173362
0.13375456 0.61140422 0.88153870
0.63332721 0.13224932 0.37964473
0.60474191 0.12664539 0.86969534
0.64044464 0.62827690 0.36827393
0.63856150 0.61470033 0.86003970
0.45466424 0.43998069 0.19820504
0.44345331 0.42921178 0.68424417
0.43862451 0.94671581 0.20608935
0.43375509 0.94164873 0.67584170
0.97388597 0.44466241 0.19482196
0.92978368 0.46851507 0.69160486
0.92720640 0.94172781 0.18839742
0.92701896 0.91553870 0.70439536
0.17509324 0.30871497 0.30809210
0.18605665 0.30672739 0.81977732
0.20849565 0.81401253 0.30617613
0.19758144 0.80910109 0.81921397
0.69208598 0.30602266 0.30825547
0.69332755 0.33040998 0.80571828
0.68704287 0.80394362 0.31054352
0.70055712 0.80067420 0.81047381
0.29353282 0.30831094 0.19500361
0.30199587 0.31051800 0.70484157
0.31632201 0.81053506 0.17696581
0.31369377 0.82423123 0.69432117
0.81297732 0.30526562 0.20024333
0.80692858 0.30584797 0.68902666
0.81054491 0.81038851 0.20087504
0.78697928 0.81562588 0.68298538
0.08441804 0.47919530 0.31664826
0.04583845 0.43898109 0.80706184
0.03444252 0.92666276 0.30117623
0.04737602 0.93461574 0.81739485
0.55877595 0.43103095 0.32968324
0.55441776 0.41474106 0.80678042
0.56254949 0.94388709 0.30728747
0.54605468 0.93482900 0.79714218
0.12493117 0.35650209 0.13231285
0.12573663 0.37204502 0.62282120
0.13108356 0.87987308 0.12486218
0.14208122 0.86742806 0.63387131
0.62186140 0.39132664 0.12524447
0.63170435 0.36962354 0.62576755
0.61797055 0.88738772 0.12150273
0.61873333 0.87889073 0.60804495
0.18989777 0.17801504 0.20323057
0.17296514 0.21277864 0.68799702
0.20509935 0.69842049 0.19871215
0.20048827 0.70662329 0.68060658
0.71059210 0.18759378 0.19407073
0.69583988 0.19767139 0.69426078
0.70066459 0.69269672 0.19166211
0.68402982 0.68541632 0.69138539
0.46030441 0.07724371 0.31979132
0.42971054 0.04870152 0.80150711
0.45811636 0.56781110 0.31347395
0.44455034 0.53976901 0.81776586
0.94299432 0.07510781 0.28516457
0.93188101 0.04541345 0.80012138
0.94003124 0.55609387 0.31292566
0.95402398 0.57339188 0.81653411
0.06624050 0.04488780 0.18957095
0.02988794 0.03312027 0.67335946
0.06408920 0.59189936 0.19865840
0.05765004 0.57044527 0.70045207
0.55756532 0.05326050 0.18692443
0.53797712 0.06390615 0.68348410
0.57774341 0.56278403 0.20678175
0.55343594 0.54668493 0.70306095
0.30322525 0.18714041 0.31202016
0.29184131 0.17925733 0.81259347
0.34032464 0.71564873 0.30470637
0.30937400 0.68456839 0.79094323
0.81902866 0.18905802 0.31273673
0.78816443 0.20012414 0.82985521
0.81941457 0.69885045 0.32042323
0.81294050 0.68732466 0.79217425
0.37474995 0.11525333 0.12997538
0.36527332 0.12377355 0.61577301
0.38113591 0.62307841 0.13208923
0.38154787 0.62219841 0.61831097
0.87777931 0.12627796 0.11157210
0.88021345 0.14438091 0.62970570
0.87045019 0.61772978 0.13129194
0.87795103 0.63595399 0.63090318
0.19394644 0.43430133 0.43770901
0.19660137 0.43691812 0.94986053
0.19320770 0.92856626 0.44366388
0.17687085 0.94485008 0.93689926
0.69899870 0.46171367 0.44182397
0.67412735 0.43530350 0.93824755
0.69975773 0.96007028 0.44614299
0.67883807 0.93977321 0.94706468
0.43483816 0.31351303 0.05361512
0.43475885 0.30757632 0.56042257
0.44316107 0.79675813 0.04135039
0.43765386 0.80578921 0.55955419
0.94747999 0.29834122 0.06288085
0.94157998 0.31428512 0.57451870
0.95292619 0.81149527 0.06644377
0.92331034 0.80484005 0.55579087
0.06815383 0.32562216 0.45761931
0.05853441 0.29251277 0.93966591
0.05311124 0.81584701 0.45682595
0.04800950 0.78567614 0.92740775
0.54989128 0.30019622 0.43372706
0.56131918 0.29222005 0.93857565
0.54136736 0.82597989 0.42968038
0.57037798 0.79283119 0.93229433
0.30924330 0.43909142 0.07128036
0.30765098 0.45554617 0.55810724
0.31355154 0.92512989 0.04428403
0.30852499 0.95616577 0.55288417
0.79467638 0.43154142 0.05580082
0.81434791 0.42651476 0.56722414
0.79393688 0.93680767 0.06064386
0.82144807 0.96421512 0.56203515
0.38445645 0.36735726 0.37060940
0.37237346 0.36760790 0.88899704
0.36712067 0.88386281 0.39089362
0.36873583 0.85885638 0.86515728
0.88807402 0.38354946 0.38113460
0.89531552 0.37873445 0.86833074
0.87164758 0.89196310 0.36865205
0.86180974 0.87622187 0.89064737
0.24928511 0.99020989 0.99146579
0.24254276 0.00135518 0.49328035
0.24951945 0.50128620 0.00877870
0.25062430 0.50151376 0.49605759
0.73542705 0.00064016 0.00577346
0.75742803 0.02443780 0.50071759
0.74165892 0.49246241 0.99297972
0.75847336 0.49968517 0.50978738
0.23684317 0.24657675 0.25904433
0.23780447 0.24768156 0.76110044
0.27121792 0.75546649 0.24916455
0.25403790 0.75931730 0.75017302
0.76055990 0.24808525 0.25868023
0.74861302 0.26211286 0.75658683
0.75478079 0.75065537 0.25986849
0.74774823 0.74265468 0.74179926
0.99669965 0.99982937 0.24005979
0.99017338 0.98519160 0.75064786
0.01637979 0.52092842 0.25184405
0.99896180 0.50992592 0.75370498
0.50298234 0.00808015 0.25923227
0.49628209 0.99239317 0.73753511
0.51433314 0.50283402 0.26003550
0.49531613 0.48190764 0.75053956
0.00356039 0.24186517 0.00218287
0.00376802 0.26841389 0.50705333
0.99596462 0.74191367 0.00489133
0.00233561 0.74551306 0.50780578
0.49969651 0.25607156 0.00560078
0.49412200 0.24562760 0.49917311
0.51044898 0.73873303 0.99229708
0.49635732 0.75861644 0.48738374
Direct configuration=      3
0.07848037 0.23371289 0.37420647
0.08595587 0.01637422 0.87285945
0.05817457 0.58760473 0.49025154
0.11868511 0.51029436 0.87063323
0.55766723 0.07780988 0.42463611
0.51895041 0.11859789 0.80246178
0.62257793 0.74764476 0.39557369
0.59331886 0.71869896 0.85588862
0.04984961 0.12397271 0.46745244
0.12432470 0.10102435 0.98141300
0.00956680 0.66012432 0.33223022
0.24550183 0.62430774 0.89332319
0.57938358 0.16308565 0.24499992
0.68055700 0.13201976 0.96702853
0.52384336 0.61646237 0.37874238
0.57957724 0.50295500 0.90847409
0.09219584 0.01190251 0.38293630
0.08636671 0.15677615 0.75014917
0.12748920 0.64179315 0.26302462
0.08576706 0.59981203 0.97494485
0.54655014 0.21701364 0.36611298
0.60898998 0.23976210 0.85267908
0.67682740 0.53714619 0.32524322
0.73718026 0.63910958 0.87408377
0.07769737 0.13784471 0.27417370
0.17265356 0.20498669 0.87987740
0.15837781 0.74571926 0.38507273
0.17277496 0.74905289 0.91131772
0.73550196 0.12698693 0.36871937
0.54593867 0.10059879 0.96344362
0.60505111 0.54072374 0.47778859
0.52338325 0.62185918 0.82087890
0.22408447 0.07500014 0.31488950
0.00844034 0.16665188 0.84428055
0.18132060 0.53331306 0.34353511
0.16646131 0.61330653 0.76141246
0.67348826 0.22598726 0.42859421
0.65501776 0.99747478 0.86118502
0.74683735 0.66881251 0.42879487
0.64410465 0.62839883 0.98210557
0.21497254 0.18357521 0.40996270
0.23069533 0.08736637 0.83571850
0.21172296 0.63524236 0.46903874
0.03114565 0.66255270 0.82424145
0.64692418 0.02365880 0.30924562
0.67356494 0.10975036 0.76436787
0.62138205 0.65617511 0.26833747
0.65443318 0.58177768 0.75552235
0.13565448 0.34583599 0.99075039
0.11203226 0.43456978 0.53055551
0.09184837 0.89068467 0.99745383
0.11889024 0.90483094 0.51174426
0.61259005 0.25566044 0.10646202
0.60206566 0.47999205 0.60897822
0.57193534 0.75387718 0.13329331
0.65520031 0.88312257 0.74315352
0.06586949 0.48004055 0.12221607
0.24046879 0.41131948 0.63034182
0.23998777 0.87446701 0.12102992
0.12056350 0.85156627 0.73273182
0.60002711 0.35035510 0.25539508
0.57243021 0.34527988 0.71886376
0.73226198 0.84693817 0.11376708
0.58845449 0.92395111 0.50951603
0.12670380 0.36686074 0.23651505
0.15461215 0.26955668 0.58125865
0.12732087 0.74544029 0.12994961
0.12669139 0.97627963 0.65820760
0.50130541 0.40099565 0.10184167
0.49401533 0.38206946 0.59169556