Li192 P32 S160 Cl32
1.0
20.312311 0.000190 -0.000113
0.000190 20.312339 -0.000033
-0.000113 -0.000033 20.312424
Li Cl S P
192 32 160 32
Direct configuration=      1
0.10433786 0.24082219 0.35701881
0.10031585 0.00656668 0.89239784
0.08825993 0.58340314 0.49591643
0.15715118 0.49941889 0.85453039
0.61606538 0.13154984 0.48589910
0.51314544 0.15715672 0.82790598
0.62868954 0.72583816 0.43937369
0.60356252 0.73635231 0.84551012
0.03301594 0.11278775 0.45250437
0.10904073 0.10322674 0.98702616
0.01490214 0.63457715 0.37413823
0.24909353 0.64105053 0.90707114
0.59789866 0.15270100 0.26080939
0.70456590 0.13574845 0.95345884
0.50687405 0.62639979 0.37997799
0.60113622 0.51596745 0.91090092
0.13168504 0.00997964 0.35910032
0.10450590 0.15394251 0.75948688
0.13464244 0.63462490 0.27234705
0.10149667 0.57629904 0.98992703
0.54728551 0.22194596 0.36806794
0.62794699 0.24047487 0.86430646
0.64428421 0.52931717 0.29899162
0.74668796 0.63751424 0.88362173
0.04158783 0.13788535 0.28690398
0.16842341 0.22514756 0.90499135
0.13734952 0.74180331 0.39626863
0.14947491 0.72911069 0.90747054
0.73480842 0.09457415 0.32808591
0.54409264 0.10275018 0.95762741
0.61021382 0.54707940 0.46250104
0.51391714 0.63784834 0.85452118
0.20470160 0.10967707 0.29373036
0.01159637 0.13657235 0.86214803
0.15264016 0.51295162 0.36010862
0.15750749 0.60613696 0.76801721
0.71222767 0.22312379 0.39739823
0.64789214 0.01236286 0.86161998
0.73488907 0.63109756 0.38220977
0.65562075 0.65787514 0.98372115
0.19816269 0.13748459 0.46072864
0.23346640 0.08015759 0.83736606
0.22338353 0.64197576 0.45866243
0.02369375 0.63102147 0.86422666
0.60076227 0.02495215 0.37649269
0.65519322 0.10860830 0.75665820
0.59588766 0.66951994 0.26642892
0.65733985 0.58864103 0.76640862
0.11365658 0.39288960 0.01025524
0.11037259 0.39982151 0.51351392
0.10201695 0.89775303 0.01004400
0.10611423 0.88514188 0.51568440
0.60146860 0.26594491 0.13868001
0.60494999 0.49110279 0.60978302
0.60735062 0.76279388 0.13544057
0.66133737 0.89774871 0.73396449
0.02063380 0.41543824 0.10379465
0.24093648 0.35356506 0.60865944
0.23950434 0.89040846 0.13419414
0.10262784 0.84631648 0.74191881
0.59988405 0.36165386 0.24270614
0.59749827 0.34967810 0.73781140
0.72821158 0.86042022 0.11338272
0.61582617 0.88419745 0.50950596
0.10468692 0.35606507 0.24229801
0.14586642 0.25673103 0.59112891
0.14045436 0.76695655 0.10866164
0.11988337 0.98800035 0.63587754
0.50689959 0.39712988 0.09418848
0.51363327 0.38728059 0.60574432
0.58622732 0.90960239 0.01811060
0.73941743 0.85854579 0.59142208
0.20612203 0.44513607 0.14455878
0.15498672 0.47599584 0.66084598
0.01311356 0.85766139 0.14776909
0.15433705 0.76091792 0.59668088
0.64122515 0.36267882 0.01605505
0.65450818 0.36308521 0.51246087
0.50182947 0.85789519 0.14480161
0.51593247 0.85703253 0.64656317
0.04918440 0.26970070 0.14570669
0.09696211 0.33088926 0.73321023
0.10649126 0.99332000 0.10609092
0.00381663 0.85184264 0.64705592
0.72994937 0.40676476 0.15902313
0.64462423 0.26737874 0.60814211
0.60266718 0.85550092 0.24362270
0.64463142 0.76019232 0.60186465
0.20675916 0.28339677 0.10443627
0.01219655 0.39392087 0.60458644
0.13764296 0.90357545 0.23984878
0.23512891 0.89415969 0.64814377
0.60148649 0.49703975 0.10061862
0.73575255 0.41331384 0.66060701
0.64716473 0.98787565 0.15760812
0.63914974 0.99224369 0.63587775
0.38084659 0.11980310 0.23051134
0.39378544 0.10301611 0.51018417
0.37169099 0.64014414 0.23785549
0.40630081 0.50558585 0.61025571
0.84984832 0.13502683 0.00310186
0.79583758 0.21878714 0.60831916
0.99187350 0.62505936 0.12598807
0.99392864 0.62930905 0.63550754
0.39725933 0.00980841 0.09089288
0.36074633 0.09101441 0.73728047
0.41601326 0.55140306 0.03423603
0.34028576 0.73350365 0.60180973
0.88035181 0.14067034 0.22958533
0.88373599 0.11305641 0.50635575
0.87385193 0.52036158 0.13284397
0.76328663 0.60118301 0.64949436
0.38524321 0.23863604 0.12625624
0.44317724 0.02500019 0.61102431
0.35698464 0.69613858 0.03205434
0.38721730 0.61151631 0.51315317
0.84412541 0.00994018 0.14832910
0.87402192 0.13091101 0.73774212
0.89186150 0.74996548 0.15168302
0.86615128 0.54699631 0.72591284
0.26446574 0.11626468 0.12866504
0.34307865 0.23250933 0.59806229
0.35115250 0.50848994 0.16506561
0.49533644 0.63135347 0.62842171
0.84513069 0.23848911 0.09713510
0.95109641 0.04375498 0.61153972
0.76273597 0.62340744 0.14139857
0.85682547 0.65775775 0.52569810
0.34768693 0.14927066 0.00263136
0.48194463 0.17139850 0.66136384
0.47443126 0.68134152 0.13735609
0.39713572 0.64112194 0.73972455
0.97924003 0.09449607 0.09579750
0.78601058 0.04777946 0.63240253
0.85165741 0.65106297 0.01462211
0.88622664 0.71848650 0.68960143
0.49173322 0.10560729 0.09882959
0.26741813 0.08746016 0.64099313
0.26021950 0.62722240 0.12604356
0.26990697 0.59400037 0.65340485
0.75285147 0.11143411 0.13725785
0.96010912 0.20975631 0.63546797
0.89622028 0.65245879 0.24569172
0.90689772 0.51297876 0.57911909
0.45727636 0.39357316 0.45615803
0.35234745 0.25581851 0.88942245
0.38635298 0.87808451 0.27496811
0.40921017 0.98340264 0.90886099
0.85965434 0.39871091 0.25993512
0.97648283 0.29332644 0.86022744
0.75744312 0.84970732 0.41688230
0.98395259 0.84602674 0.85288439
0.29299944 0.37742271 0.28466616
0.35609091 0.48416683 0.86532599
0.39187913 0.99546002 0.39718476
0.34540336 0.91483913 0.77007173
0.86457094 0.49670166 0.37230359
0.77364805 0.40651982 0.86168502
0.78559567 0.90661510 0.28666963
0.88272397 0.85573834 0.75823860
0.37249914 0.25735033 0.37395552
0.27775403 0.38171287 0.79115314
0.28191191 0.85893036 0.47527274
0.37752170 0.85929653 0.98809830
0.98352065 0.40864495 0.40890501
0.89026264 0.36648530 0.76246674
0.94337606 0.87147320 0.29005203
0.85859291 0.75065790 0.88916972
0.35056981 0.48747052 0.34912295
0.47897278 0.39473352 0.90759341
0.36378711 0.76858709 0.38349369
0.39520435 0.75674406 0.85483717
0.83850670 0.34730007 0.48587906
0.88621135 0.38710798 0.99326071
0.89366109 0.99583006 0.39135651
0.75623785 0.84091254 0.90345730
0.29649120 0.35893368 0.46164928
0.31124598 0.36006367 0.97111652
0.44003534 0.89014683 0.47471774
0.26534879 0.84288100 0.89768552
0.90947666 0.27389882 0.34472255
0.83832851 0.26458345 0.90521835
0.89144026 0.76905276 0.36163503
0.88745669 0.88343622 0.98768788
0.46089594 0.36494576 0.29329371
0.41974312 0.33117803 0.76655515
0.25516718 0.91150588 0.34470365
0.49078776 0.85187298 0.84557035
0.75709125 0.40105640 0.35281310
0.97193262 0.45277355 0.89023209
0.89860277 0.89321129 0.48689900
0.85621215 0.97927360 0.85963419
0.03820251 0.00480358 0.00568206
0.96658919 0.01922854 0.49358413
0.02343897 0.47682675 0.99996030
0.01200501 0.48275258 0.51229014
0.49015052 0.00739152 0.00826228
0.46674322 0.00444715 0.49587965
0.51345336 0.48461875 0.00808635
0.50450418 0.49166551 0.52794491
0.01890841 0.25399602 0.26280510
0.01156885 0.24064358 0.75595901
0.96281678 0.75888856 0.24980096
0.98304675 0.78286278 0.74475639
0.52399430 0.26489028 0.25594111
0.50906093 0.25056756 0.75280304
0.52068546 0.75545902 0.22238395
0.49427297 0.73942765 0.78633482
0.21464329 0.99290209 0.26936941
0.26907549 0.00920250 0.73846478
0.26593362 0.48643407 0.24875115
0.23178273 0.50129559 0.75379142
0.75024414 0.01447217 0.22868863
0.71923029 0.00778873 0.72993025
0.75588191 0.47882377 0.26012869
0.75287859 0.51309247 0.73299362
0.26711103 0.24679297 0.98768958
0.25043528 0.26356049 0.52351244
0.25519687 0.74125817 0.97618063
0.24548809 0.74877527 0.51110375
0.77302697 0.22692927 0.99682129
0.73763663 0.27091639 0.50757871
0.76582656 0.72879259 0.96709474
0.72103867 0.77365148 0.50258324
0.44936710 0.19201987 0.44056907
0.44727892 0.18711805 0.93464328
0.43356056 0.69427676 0.44490629
0.44266616 0.68315552 0.94410211
0.94134281 0.19765510 0.43414369
0.94135709 0.19570648 0.93865668
0.93858602 0.69054975 0.44382592
0.94684368 0.68554150 0.94252303
0.19802259 0.05512735 0.05440884
0.18231617 0.05830414 0.55847344
0.19248401 0.54714288 0.06683474
0.19420171 0.55572990 0.56182820
0.68426044 0.05388786 0.05392679
0.69039012 0.06507169 0.55285055
0.69497754 0.56594053 0.05982551
0.68874746 0.56403758 0.55843634
0.29563928 0.06193306 0.44322880
0.31070784 0.05313083 0.93404698
0.30842114 0.55808018 0.44299669
0.31961226 0.55677918 0.95506309
0.80020754 0.06554724 0.42965386
0.79566832 0.05044752 0.93498876
0.81130048 0.56816587 0.45068188
0.81727459 0.55514813 0.94551266
0.05586730 0.18420860 0.06022946
0.05168177 0.19051938 0.55235356
0.06546163 0.68806356 0.05559619
0.05968297 0.69042391 0.55749048
0.56135558 0.19033819 0.05091886
0.55534237 0.19783904 0.56549542
0.56339126 0.68693220 0.05454291
0.56048605 0.69078057 0.54805407
0.12007988 0.12577518 0.37375240
0.12522492 0.11898207 0.87189283
0.12803076 0.62428267 0.38881963
0.13596373 0.61358587 0.88281101
0.63202363 0.13743120 0.37148145
0.62053534 0.12525761 0.86997321
0.62100601 0.62486395 0.37300951
0.62925241 0.62484666 0.87497684
0.44673412 0.44237717 0.19463037
0.44563547 0.43324877 0.69755705
0.43578233 0.94772252 0.19045528
0.44338444 0.93932091 0.69709629
0.94769313 0.44919671 0.19367981
0.94388485 0.44693096 0.68982875
0.93494781 0.94239351 0.18864221
0.93271293 0.94645973 0.68935312
0.19686715 0.30494082 0.30698048
0.19092458 0.29699417 0.80644208
0.18517370 0.81413815 0.31164211
0.18947365 0.79951344 0.81161557
0.69061517 0.31091168 0.31035835
0.69703899 0.32031675 0.80785840
0.68993748 0.81426777 0.31564174
0.69251112 0.80604951 0.80681624
0.30309741 0.30433156 0.18459078
0.31160996 0.30368911 0.69669345
0.30950684 0.81857969 0.20057070
0.30832074 0.80964430 0.69637809
0.80685293 0.31312038 0.18895864
0.81163317 0.31560553 0.68915145
0.80297832 0.81924922 0.19805417
0.80260830 0.80593632 0.68333362
0.05973918 0.44627800 0.31537036
0.06250839 0.43036129 0.80575615
0.04354827 0.94079222 0.30656334
0.05160567 0.93820047 0.80674303
0.55357300 0.44781884 0.31711760
0.55722371 0.43957664 0.81799935
0.55153627 0.94191856 0.30739737
0.56681907 0.94026704 0.80608789
0.12224171 0.36287129 0.12600298
0.12553875 0.36850849 0.62478166
0.12439832 0.87976296 0.12489148
0.12102765 0.87197909 0.62945565
0.61917781 0.38107213 0.12795670
0.62721363 0.37935694 0.62662995
0.61603568 0.87803191 0.12829425
0.62732218 0.87560178 0.62352530
0.18766053 0.18586439 0.18936614
0.19550380 0.18416262 0.68370250
0.19281749 0.70049045 0.19223346
0.19699136 0.68814409 0.68800485
0.68878188 0.19745710 0.19089499
0.69851499 0.20012504 0.68909579
0.68986826 0.69805483 0.19588512
0.68615083 0.68786413 0.69130371
0.44532986 0.06459019 0.30975633
0.44663753 0.05453295 0.81495668
0.43713248 0.56395329 0.30585535
0.43878726 0.55379237 0.81246135
0.93907673 0.06664073 0.30214402
0.93554079 0.05617207 0.81292906
0.94331004 0.56367354 0.31280839
0.95108639 0.55010311 0.81431812
0.05341992 0.06231246 0.18905733
0.04676449 0.06179024 0.69240565
0.06548631 0.56461832 0.19969753
0.06858479 0.55628486 0.69564252
0.55700085 0.06179838 0.19003364
0.55226033 0.06200444 0.68956044
0.56428721 0.56447913 0.19936803
0.55799422 0.55721727 0.70015018
0.30646402 0.18253049 0.30171372
0.30611186 0.17922927 0.80661818
0.30040161 0.69664060 0.31459587
0.30918064 0.68563826 0.80736811
0.80745866 0.19790493 0.30787112
0.80764289 0.19808486 0.81016511
0.80565476 0.69736924 0.31269098
0.81395103 0.68847450 0.79432362
0.37742464 0.12427546 0.11509364
0.37937404 0.12387400 0.62536351
0.37467652 0.61881469 0.12446264
0.38027022 0.62138838 0.62609770
0.86723660 0.12228166 0.11774079
0.87217529 0.12983481 0.62253508
0.87664232 0.63512668 0.13075067
0.88029173 0.61641655 0.63050558
0.19931376 0.43731160 0.44309787
0.20855449 0.43430664 0.94479800
0.18692363 0.93715179 0.44529287
0.19327012 0.93687437 0.93655152
0.68999226 0.45406151 0.43978633
0.69558276 0.44481864 0.94675724
0.68349944 0.94925124 0.43239722
0.68400634 0.93103820 0.94521391
0.43884008 0.30827941 0.04677779
0.43328212 0.31222505 0.55539265
0.43896014 0.79125884 0.06297836
0.43632944 0.80534972 0.56708696
0.94876199 0.30643081 0.06325040
0.93661819 0.30820501 0.55855082
0.94655734 0.80598988 0.05843281
0.93560554 0.80238021 0.56187465
0.05606689 0.31578185 0.44163922
0.06610914 0.30028026 0.94226559
0.05063375 0.81040174 0.44213126
0.06069615 0.80547968 0.93997843
0.55584949 0.31564029 0.44715450
0.56120170 0.30967359 0.93848315
0.54200523 0.81614701 0.44210972
0.55618653 0.80919856 0.94254524
0.31317803 0.43798069 0.06895081
0.31393009 0.43914146 0.55910257
0.31160465 0.93641755 0.05188821
0.30371223 0.94284934 0.56117884
0.80752013 0.44479223 0.06789409
0.80659299 0.44396016 0.55939225
0.80409855 0.93640151 0.05840293
0.80473016 0.95091695 0.54963056
0.37368793 0.37332188 0.37192971
0.37001433 0.36963534 0.86751589
0.36014532 0.88211054 0.38760360
0.37835131 0.87216885 0.87507524
0.87197699 0.38196011 0.37553755
0.88546998 0.36990975 0.87828088
0.86317571 0.88232463 0.37500889
0.87001615 0.86609051 0.87548963
0.25287622 0.99559629 0.99329395
0.24419410 0.99949260 0.50393961
0.25743757 0.49626806 0.00830550
0.25381937 0.49756943 0.50327210
0.74324466 0.99271214 0.99948509
0.74431559 0.00657492 0.49006781
0.75455970 0.50472368 0.00421101
0.75001359 0.50570405 0.50332072
0.24876070 0.24392213 0.24496046
0.25042603 0.23964586 0.74771057
0.24913148 0.75956993 0.25480338
0.25107122 0.74672919 0.75087412
0.74834095 0.25617034 0.24854471
0.75428682 0.25854925 0.75049762
0.74702601 0.75732121 0.25539671
0.74763832 0.74729551 0.74513268
0.99359443 0.00311610 0.24490748
0.99281195 0.99909386 0.75086452
0.00527946 0.50678491 0.25513970
0.00896988 0.49641055 0.75125260
0.49770681 0.00361472 0.24963913
0.50394754 0.99886863 0.75256198
0.50139482 0.50528623 0.25187961
0.50015031 0.49512581 0.75639083
0.00367692 0.24713488 0.00084288
0.99658227 0.25484826 0.49673845
0.00413184 0.74612730 0.99962289
0.99762958 0.74994535 0.50224826
0.50150607 0.24959057 0.99441452
0.49813167 0.25465559 0.50374839
0.50247182 0.74472376 0.99789077
0.49414029 0.75247112 0.50329505
Direct configuration=      2
0.12065537 0.23947033 0.37085546
0.10071183 0.01122992 0.88841175
0.04240476 0.60498160 0.46829409
0.13492762 0.50552624 0.87563486
0.59919908 0.11000158 0.47643467
0.51566563 0.15926020 0.82894442
0.63215426 0.74887956 0.41037603
0.60288248 0.73431261 0.84267322
0.04135954 0.10891824 0.45484136
0.10879838 0.10939877 0.98214579
0.00998799 0.66437012 0.34145239
0.24214424 0.64207947 0.91205633
0.60915512 0.15519442 0.25468112
0.70471962 0.13386986 0.95679657
0.49889412 0.63085171 0.38003354
0.59168912 0.51517261 0.90990140
0.13549835 0.00984784 0.35352437
0.11336269 0.14042389 0.75002802
0.14009868 0.63446587 0.26618737
0.10575243 0.59340008 0.00042608
0.53398353 0.20691912 0.35672101
0.63265080 0.23709817 0.86431032
0.62402931 0.52398688 0.34650510
0.73912361 0.64455189 0.88453706
0.04400868 0.13688730 0.28805660
0.17512493 0.22732758 0.89567859
0.14237624 0.74877488 0.39421914
0.14412929 0.73474555 0.91035178
0.73954291 0.10972285 0.33621519
0.54195185 0.09856959 0.95949057
0.59606618 0.60551874 0.49283775
0.50874138 0.63807869 0.85395228
0.20784146 0.11140439 0.29169011
0.01836891 0.15446835 0.84412493
0.14034489 0.52048675 0.36972637
0.13408014 0.62524405 0.77107466
0.67400450 0.23870742 0.40549821
0.64551565 0.01101197 0.86444986
0.72853773 0.63427259 0.38214619
0.64430902 0.65380135 0.98498166
0.20895481 0.13850177 0.45755815
0.23822076 0.08359126 0.83547722
0.20364973 0.64106437 0.46164719
0.01394854 0.62535119 0.87980017
0.63118555 0.02238134 0.34127304
0.65743580 0.10629448 0.75552401
0.59322794 0.66689402 0.26789500
0.65391481 0.58460184 0.76578005
0.10302350 0.40083804 0.01534250
0.11297245 0.45069008 0.53601581
0.10604435 0.90224771 0.00668770
0.12672300 0.86240700 0.51087955
0.60417028 0.26731894 0.13740559
0.60074108 0.48907497 0.60436982
0.60374663 0.76154780 0.13784532
0.66240096 0.89832286 0.73167820
0.05577427 0.46767708 0.12747445
0.24362651 0.38969507 0.63995444
0.25009220 0.89144295 0.13220770
0.10191930 0.84477463 0.74090555
0.60237506 0.35921213 0.24216258
0.59172715 0.34531213 0.73208423
0.73116227 0.85875572 0.11589711
0.62447346 0.87397931 0.50633528
0.11133137 0.36913068 0.24258025
0.14608960 0.28416539 0.54287339
0.15733473 0.76864717 0.09110475
0.11579096 0.98420118 0.62013016
0.51605309 0.41177769 0.09018318
0.50959371 0.38692996 0.60259132
0.58878232 0.90302103 0.01572689
0.73932332 0.85839057 0.59326577
0.22623821 0.41575665 0.14416201
0.13434965 0.45134417 0.70600581
0.02428010 0.86023113 0.14012766
0.15153474 0.75770324 0.60245245
0.64382726 0.36582719 0.01529968
0.64845408 0.36518856 0.50812095
0.50408900 0.86485535 0.14288961
0.51537504 0.86168191 0.64168308
0.02582321 0.29066788 0.14518623
0.12059462 0.28510980 0.70474771
0.11487474 0.99607202 0.10343740
0.00413914 0.85441430 0.64332775
0.74126250 0.39689512 0.14664765
0.64483047 0.26545017 0.59977543
0.60122632 0.85818261 0.24300110
0.64044219 0.75960434 0.60463191
0.16311016 0.26495852 0.09611871
0.01363019 0.37067859 0.62231600
0.14319515 0.90529239 0.23474340
0.23472373 0.89306505 0.64548872
0.64889707 0.49435796 0.14912037
0.73129678 0.41272576 0.65617224
0.64545811 0.98832330 0.15750068
0.64091430 0.99219838 0.63069969
0.37751302 0.12655461 0.23117811
0.39383717 0.10053720 0.50728697
0.35108239 0.61209285 0.23749739
0.44741475 0.52526780 0.62194264
0.85823214 0.13769363 0.00337378
0.79721446 0.21496031 0.60317277
0.98375341 0.60131566 0.10284467
0.99221946 0.62302271 0.63189664
0.40729439 0.01867489 0.08717707
0.36298101 0.09429135 0.73333771
0.42627981 0.58375901 0.02447407
0.34797753 0.72948026 0.62610178
0.90548825 0.15670972 0.22668361
0.88738326 0.10837590 0.50287078
0.85737144 0.51238401 0.14579583
0.76067456 0.59851656 0.64438187
0.37003293 0.24708066 0.11215519
0.44542404 0.02766952 0.60960068
0.35204227 0.70939990 0.03304777
0.37739555 0.60435679 0.52038540
0.87026491 0.01005763 0.12741358
0.87090661 0.12368868 0.73314212
0.89315971 0.74080748 0.15269501
0.85173660 0.58178823 0.74006215
0.26601264 0.11465072 0.13160648
0.34241716 0.23345907 0.59040809
0.35702001 0.50935984 0.14733838
0.48287867 0.65915698 0.67521548
0.85168838 0.23810518 0.09854407
0.94807264 0.03655066 0.60967805
0.75928312 0.60733531 0.15536494
0.85827010 0.64577359 0.52040863
0.34708088 0.15052166 0.00163706
0.48327096 0.17247756 0.65640770
0.42190453 0.72704315 0.16052561
0.35211394 0.60183356 0.74785663
0.99028982 0.10162592 0.09657604
0.78458860 0.04628162 0.62659105
0.84046268 0.65057415 0.02054545
0.89441507 0.73135689 0.65886068
0.49134353 0.14351434 0.12882745
0.26893361 0.08858775 0.63795005
0.25934396 0.63396664 0.11304062
0.27954084 0.54516459 0.63278140
0.76330611 0.10680217 0.15063422
0.96866174 0.19557200 0.63609210
0.88854651 0.64377768 0.24722879
0.90000500 0.50828494 0.59238329
0.46281542 0.39230434 0.44538987
0.35863353 0.25503162 0.89119161
0.39532871 0.87569689 0.27266628
0.40745229 0.98799596 0.89603289
0.87575308 0.39130215 0.26626578
0.99099941 0.35417233 0.86701355
0.76249919 0.84299917 0.41923173
0.98379898 0.84521110 0.85177082
0.29252943 0.38188219 0.28607983
0.38982520 0.47942389 0.90288834
0.39876448 0.99372218 0.39390391
0.34660938 0.91607299 0.76793659
0.89361191 0.49281727 0.40890306
0.76145657 0.39622101 0.85618441
0.76800472 0.93224021 0.32243230
0.88257680 0.85311292 0.75873556
0.35300651 0.25820537 0.39247264
0.28926947 0.38761478 0.79260083
0.28128115 0.85711770 0.46683695
0.40910334 0.88991911 0.98536214
0.99365180 0.40074030 0.40998387
0.87910493 0.36770453 0.75884319
0.90550673 0.86181756 0.26792786
0.85661414 0.75037236 0.89353741
0.35015965 0.48835601 0.35133649
0.48650347 0.38611234 0.90563016
0.37107503 0.76570547 0.38032444
0.39702431 0.75896680 0.85010225
0.84509961 0.34194456 0.49038296
0.85167252 0.35046764 0.98781127
0.90427574 0.99208748 0.38686406
0.75570370 0.84235775 0.90204735
0.29210830 0.36542642 0.46096044
0.30047578 0.36004049 0.96201733
0.43623533 0.89004016 0.47920512
0.27024915 0.85299446 0.90059837
0.91136016 0.26731753 0.34571655
0.85457862 0.25462070 0.89033049
0.89573379 0.76847146 0.36470189
0.88721340 0.87917585 0.98815357
0.45178273 0.35984876 0.28689778
0.42031185 0.32923787 0.76619874
0.26220543 0.91601457 0.34074397
0.49343634 0.85633496 0.84536885
0.76647761 0.38591190 0.37239581
0.89372229 0.48206268 0.90089275
0.90385408 0.89698728 0.48558270
0.86527435 0.98094813 0.86376826
0.04192699 0.00981106 0.00558301
0.96925149 0.01461348 0.49277589
0.02515456 0.50902183 0.02196828
0.99453737 0.49456023 0.49885760
0.48778228 0.98741767 0.99404806
0.46923449 0.00386861 0.49643208
0.49274232 0.48485061 0.98312606
0.50570279 0.49039660 0.52653950
0.99258129 0.24091533 0.25224843
0.02264341 0.22678009 0.74215143
0.96011173 0.74609888 0.26203806
0.98434662 0.78377113 0.74174877
0.52949498 0.25653245 0.24406250
0.50961234 0.24957558 0.74976220
0.51704445 0.76595681 0.22633599
0.49598634 0.73585151 0.78022218
0.22167044 0.99598901 0.26386769
0.27301495 0.01301063 0.73751679
0.27884174 0.49203357 0.24251444
0.24566828 0.48097984 0.72811844
0.72769050 0.01900423 0.25017721
0.72095725 0.00745296 0.72314835
0.75589460 0.49823216 0.21172582
0.75107231 0.51493481 0.73086550
0.27093493 0.24519524 0.98158787
0.25754277 0.25249920 0.49370008
0.23934409 0.73478218 0.99497336
0.21638467 0.75925361 0.49561656
0.78782926 0.23816315 0.99155557
0.73549409 0.27614340 0.50404412
0.76150200 0.73219397 0.96770948
0.71094956 0.77627194 0.50029290
0.44497516 0.18869803 0.43613018
0.45196895 0.18696818 0.93801270
0.42826819 0.68950023 0.45502293
0.43773090 0.68606249 0.94524369
0.94814028 0.19211933 0.43397227
0.95080719 0.18853837 0.93746269
0.94179026 0.68478013 0.44422088
0.94156693 0.68601687 0.95219600
0.20115337 0.06350897 0.04949565
0.18664951 0.05710794 0.55401651
0.19348357 0.54537097 0.07093867
0.18456187 0.55633725 0.55366152
0.69192070 0.05601222 0.05930564
0.69048233 0.06265003 0.54409452
0.69463932 0.56411249 0.05595737
0.68661703 0.56184214 0.55761570
0.30048753 0.05772097 0.43856260
0.31449057 0.05809450 0.93042227
0.29899041 0.56478682 0.43682775
0.31471767 0.55843953 0.95437361
0.80590245 0.05972880 0.42498616
0.80026065 0.05205231 0.93825352
0.80575343 0.56733318 0.44431262
0.81102100 0.55979188 0.93959913
0.06278414 0.19417980 0.06125048
0.06096506 0.18826980 0.55287761
0.06215330 0.69276559 0.06422022
0.05752395 0.69015890 0.55811695
0.56909651 0.18643256 0.05090845
0.55629293 0.19231075 0.55765716
0.55574968 0.68573375 0.05822583
0.54872911 0.68888036 0.56853708
0.12525533 0.12512676 0.37342501
0.12920965 0.12207211 0.86624902
0.11727542 0.63363370 0.37969856
0.12834210 0.62009950 0.88630678
0.62965519 0.13702241 0.36734272
0.62195550 0.12328770 0.87144166
0.61350478 0.63625272 0.38160986
0.62393281 0.62340697 0.87398847
0.44966662 0.44302892 0.19136827
0.44268053 0.43183452 0.69736361
0.43496488 0.95228476 0.18808954
0.44419211 0.94169450 0.69472304
0.95034046 0.44930783 0.19499861
0.94351445 0.44262853 0.69179671
0.94463792 0.93975796 0.18300563
0.93094804 0.94440181 0.69000806
0.19381267 0.30912640 0.30519603
0.19818559 0.30233621 0.80071071
0.19560293 0.81786671 0.30472357
0.18801769 0.80538379 0.81880402
0.69841150 0.31426338 0.30670019
0.69185893 0.31570011 0.79891082
0.68941219 0.81787998 0.31669417
0.69241544 0.80480792 0.80498120
0.30108585 0.31190287 0.18548375
0.31930520 0.30505797 0.69206003
0.32140171 0.81327787 0.19454545
0.30610346 0.81202004 0.70332182
0.81812366 0.31485999 0.18999547
0.80786842 0.31366925 0.68227483
0.80595226 0.81605756 0.20023975
0.80252855 0.80446373 0.68302803
0.05990382 0.44908238 0.31727484
0.06181493 0.43456974 0.80743692
0.05013581 0.93816058 0.30477972
0.05253287 0.93770564 0.80575161
0.54552254 0.43667806 0.32107027
0.55973600 0.43720694 0.81441828
0.54884705 0.94490541 0.30615354
0.56845248 0.94196814 0.80273170
0.11808755 0.36779580 0.12831654
0.12828836 0.37064996 0.62236897
0.13516164 0.88148456 0.11873523
0.12126411 0.86946687 0.62723842
0.62566760 0.38159822 0.12758218
0.62329268 0.37720851 0.62226538
0.61869276 0.87735778 0.12733744
0.62742173 0.87577237 0.62204280
0.18843718 0.18725325 0.18888358
0.20109669 0.18998385 0.68025355
0.19665191 0.70308714 0.18723141
0.19535809 0.69143936 0.69465330
0.69837515 0.20171355 0.18536517
0.69674513 0.19573353 0.68099668
0.68932337 0.69834412 0.20018110
0.68659665 0.68558104 0.69078869
0.44396294 0.06887393 0.30712854
0.44969879 0.05890796 0.80984217
0.43742080 0.56076198 0.30763365
0.43746813 0.54921700 0.81505471
0.94256786 0.06283712 0.29759343
0.94071412 0.05873445 0.80970824
0.94063062 0.56292227 0.31949463
0.94319003 0.55276557 0.81503439
0.06021233 0.06121920 0.18908678
0.04796425 0.05579181 0.68528627
0.05830116 0.56849842 0.20120084
0.06433640 0.55465945 0.69903525
0.55717140 0.06439203 0.18811411
0.55502294 0.06278656 0.68504867
0.57107227 0.55944426 0.21276250
0.55094875 0.55571954 0.69665683
0.30445847 0.18864426 0.30166950
0.31270409 0.18211336 0.80423927
0.30493380 0.69473655 0.31077576
0.30489506 0.68983827 0.81665931
0.81554399 0.19698939 0.30330188
0.80373718 0.19391460 0.80249061
0.80339953 0.69959757 0.31944171
0.81216871 0.68731429 0.79789079
0.37784482 0.13151105 0.11550951
0.38022012 0.12560841 0.62114379
0.37247527 0.62684094 0.12266452
0.37576607 0.61702350 0.63570421
0.87576424 0.12392529 0.11796566
0.87279871 0.12559968 0.61828905
0.87217011 0.62818029 0.13230355
0.87782817 0.61770878 0.62969282
0.19235446 0.43741212 0.44069992
0.20086814 0.43625349 0.94614852
0.18865782 0.93719121 0.43937416
0.19666086 0.94335699 0.93438307
0.68741079 0.45316161 0.43320119
0.69103076 0.44587155 0.94032021
0.68829491 0.94541786 0.42543079
0.68675250 0.93384883 0.94731384
0.45237617 0.30889199 0.05256891
0.43629381 0.31044364 0.54713826
0.43809758 0.80080369 0.05948147
0.43059535 0.80470354 0.57322073
0.94586992 0.30809635 0.05437420
0.93928805 0.29894797 0.56072329
0.94434647 0.80790674 0.06491626
0.93217790 0.80160848 0.56064149
0.06371674 0.31240907 0.44856031
0.06922229 0.30495388 0.94138135
0.04456566 0.81142565 0.44066929
0.05548694 0.80738591 0.94386372
0.55839404 0.30651997 0.43685605
0.56927132 0.30617675 0.93916213
0.53615500 0.81181423 0.45035065
0.55609238 0.80578239 0.94103974
0.31434258 0.43415866 0.06086254
0.31131015 0.44872154 0.55421695
0.31675039 0.94438094 0.04945185
0.30426749 0.93759770 0.55624147
0.81012779 0.44216699 0.05433073
0.80227021 0.44350809 0.55416969
0.80715163 0.93506768 0.05955941
0.80520411 0.94799825 0.54718770
0.37059688 0.37330772 0.37228904
0.37575241 0.36779308 0.87015076
0.36484778 0.87991419 0.38461825
0.38191107 0.87450737 0.87313555
0.88077411 0.37810989 0.38163707
0.87521509 0.37039545 0.87416551
0.86356144 0.88148183 0.37507768
0.87017342 0.86566568 0.87572446
0.25676808 0.00180733 0.99127530
0.24690804 0.99687678 0.49916856
0.25487897 0.49659769 0.00814486
0.24721957 0.50137289 0.49655036
0.74729127 0.99415750 0.00219225
0.74730075 0.00350711 0.48504671
0.75136861 0.50317655 0.99866175
0.74559592 0.50525106 0.49789041
0.24732663 0.24893457 0.24328993
0.25807358 0.24280707 0.74487038
0.25614170 0.75797708 0.24962288
0.24717780 0.74982337 0.75803871
0.75715871 0.25696355 0.24701889
0.75104643 0.25488198 0.74245848
0.74732080 0.75770423 0.25857419
0.74792270 0.74492609 0.74456088
0.00075208 0.99997633 0.24377298
0.99410399 0.99751753 0.74839610
0.00127566 0.50884584 0.25930835
0.00234915 0.49699739 0.75443290
0.49672800 0.00766179 0.24785058
0.50610372 0.00105076 0.74862336
0.50173087 0.50121162 0.25543263
0.49813891 0.49180534 0.75694105
0.00539346 0.24954457 0.99714281
0.00171755 0.24865124 0.49807796
0.00130187 0.74779262 0.00594938
0.99652243 0.74935410 0.50219542
0.50897379 0.24819959 0.99699336
0.49882385 0.24947659 0.49687164
0.50071162 0.74511637 0.99982988
0.48869703 0.74837315 0.51257189
Direct configuration=      3
0.08030121 0.23137220 0.36232316
0.09698167 0.00881960 0.88656177
0.07731726 0.58448033 0.47522118
0.12630365 0.50420317 0.87646013
0.52986289 0.08531711 0.41868055
0.54414930 0.13077018 0.79154715
0.64159359 0.72733019 0.42121506
0.60193325 0.74503712 0.85015565
0.04917476 0.11940846 0.46699024
0.11190826 0.10801227 0.98068801
0.01547405 0.65753797 0.34816979
0.24032183 0.63751452 0.90944483
0.61141413 0.14822084 0.25511243
0.70470533 0.13947184 0.96078511
0.50231508 0.62040415 0.38043422
0.59565790 0.52178995 0.90998691
0.08363882 0.01243438 0.39184833
0.10648036 0.14324750 0.74796916
0.14085291 0.63449303 0.26208162
0.09599580 0.59465428 0.99618982
0.54514304 0.21597421 0.35601480
0.60403241 0.23573479 0.85840493
0.63024197 0.52538307 0.29950765
0.74036659 0.64466004 0.88425463
0.08958529 0.13990345 0.26129717
0.13893562 0.23170378 0.88095290
0.14990675 0.74228890 0.39114832
0.14267578 0.73309735 0.90928529
0.74341965 0.10710438 0.33803056
0.53795820 0.10650629 0.96012876
0.60759610 0.54188072 0.46364133
0.50760243 0.64734864 0.85373714
0.21947505 0.06332834 0.33164603
0.01037528 0.14828908 0.84610282
0.16250039 0.51342336 0.34654953
0.15440463 0.60664138 0.76708811
0.67153000 0.22249293 0.42446546
0.62545598 0.00701058 0.87395069
0.73239597 0.61084766 0.37332963
0.65213907 0.66390486 0.98760122
0.22012117 0.16651259 0.42077787
0.23654501 0.09115143 0.83701191
0.21453537 0.63698823 0.45163613
0.01549510 0.63998976 0.85976606
0.64899285 0.01378727 0.34268002
0.70394937 0.10831861 0.78619185
0.59236080 0.66765100 0.26821080
0.64025312 0.61120988 0.76593793
0.11871135 0.36497387 0.01882891
0.11244241 0.41434538 0.51489575
0.10620464 0.90172980 0.00474782
0.09787895 0.89049909 0.50965958
0.60599637 0.26486258 0.14257810
0.60341876 0.48766844 0.61056883
0.59977714 0.76167590 0.14256363
0.66114489 0.90017704 0.72663787
0.05841216 0.46511825 0.12113308
0.23738973 0.40567910 0.64612961
0.24578198 0.90680864 0.13275806
0.10299877 0.83759079 0.73742305
0.60450919 0.35719656 0.24576137
0.59558387 0.34878043 0.73857854
0.72846259 0.85636342 0.11734925
0.59669065 0.91235093 0.50612461
0.10148848 0.34959723 0.24742026
0.15487706 0.26944734 0.58609527
0.16146451 0.77123442 0.09118293
0.12342426 0.98148421 0.63290179
0.51413584 0.40435256 0.09641062
0.51320342 0.38609066 0.60192165