Li192 P32 S160 Cl32
1.0
20.312311 0.000190 -0.000113
0.000190 20.312339 -0.000033
-0.000113 -0.000033 20.312424
Li Cl S P
192 32 160 32
Direct configuration=      1
0.03042893 0.32987974 0.20768064
0.99897023 0.10756905 0.62892661
0.00698886 0.59184013 0.40781826
0.97504930 0.63518525 0.72020289
0.73446096 0.04476001 0.34778548
0.60210202 0.19606443 0.76638039
0.71197643 0.61680850 0.20292178
0.76262541 0.38831264 0.80653153
0.16488225 0.22250476 0.42648276
0.08209301 0.10469533 0.00314169
0.21574321 0.39372449 0.21527589
0.34295995 0.51087522 0.83796296
0.60282050 0.20678124 0.28058500
0.68608907 0.00906049 0.82242612
0.54217263 0.47335955 0.61940684
0.39369979 0.95020404 0.99102212
0.34467842 0.97643528 0.34564725
0.30913884 0.92103781 0.68178996
0.15094888 0.52098231 0.20320393
0.33835198 0.52212350 0.64871905
0.60615057 0.01658336 0.42130069
0.54351018 0.09650111 0.91584884
0.66199055 0.74760859 0.39279814
0.60671660 0.42663411 0.05273208
0.97425613 0.28088335 0.37463377
0.02913980 0.13015105 0.80957251
0.07486181 0.67472659 0.28823356
0.17607828 0.73325328 0.90755531
0.63573376 0.05258593 0.27246483
0.78040369 0.11041474 0.72691548
0.52577843 0.59481373 0.42444734
0.83817003 0.82929914 0.99022267
0.23650083 0.10779414 0.26585707
0.04712855 0.79330911 0.13188313
0.12506450 0.71690809 0.45163350
0.00344246 0.84203154 0.66676359
0.73918768 0.20709380 0.38992471
0.68551772 0.29210045 0.93000726
0.84301943 0.76180062 0.40139954
0.53075694 0.61737747 0.90132306
0.08387175 0.16060337 0.25366830
0.07787229 0.00491136 0.91292836
0.13937310 0.51978421 0.33943943
0.88179265 0.72954385 0.22102274
0.51926555 0.13750892 0.37745357
0.86613837 0.00615313 0.65226104
0.66240498 0.52844903 0.33062967
0.68642561 0.51990061 0.86955319
0.15262745 0.58977983 0.75865413
0.12395195 0.53990142 0.48587535
0.15389054 0.89532593 0.23621472
0.02208298 0.06916425 0.39457232
0.65496248 0.23446365 0.05670111
0.63495272 0.40049652 0.73824148
0.52402781 0.66255942 0.29948260
0.66375930 0.90728976 0.73196871
0.17808161 0.27583913 0.09153942
0.18022943 0.20981941 0.58546500
0.30262993 0.76742606 0.92279237
0.15897324 0.92796222 0.71359772
0.71325827 0.13912804 0.92895609
0.53529802 0.31020634 0.64175658
0.53866371 0.81920742 0.16916034
0.51236529 0.87453836 0.70887322
0.19053882 0.51418279 0.86630211
0.23092223 0.37184981 0.55089261
0.19889629 0.00944130 0.15523347
0.05702551 0.88797302 0.53025322
0.51756406 0.37231714 0.22561405
0.67074412 0.27759142 0.57648911
0.54431023 0.98452490 0.10918348
0.63129280 0.76766452 0.54127273
0.10811602 0.39731546 0.01462357
0.85780300 0.25626759 0.45221529
0.06353207 0.96345841 0.11717832
0.10201612 0.98343525 0.59650736
0.48559860 0.33269907 0.36076528
0.67168782 0.59252661 0.75710848
0.70281821 0.81018135 0.09782918
0.59275355 0.73044162 0.82797939
0.35914290 0.49052362 0.33820034
0.99574298 0.58222878 0.59849064
0.98844388 0.85422179 0.32453571
0.24725923 0.88724935 0.81309106
0.79254651 0.53026706 0.12247711
0.61072274 0.42155888 0.50786366
0.63275086 0.74258114 0.01486246
0.53848193 0.88004705 0.52713337
0.22674322 0.12605285 0.95293399
0.20911691 0.41000458 0.70650863
0.36641921 0.02480474 0.22274843
0.16395760 0.76043386 0.60543232
0.63966955 0.48666694 0.19842361
0.71684082 0.45755855 0.63376362
0.66705387 0.91131772 0.21794276
0.92682380 0.27675707 0.69240419
0.37432889 0.19846460 0.01186886
0.48657360 0.17337130 0.66546637
0.36155573 0.64280742 0.22110407
0.31454309 0.61055257 0.76158786
0.87672428 0.20746042 0.17616663
0.66810777 0.16575353 0.50959957
0.97413711 0.65841606 0.15490344
0.87635578 0.50633924 0.68947890
0.31343822 0.87044739 0.28193098
0.37659613 0.13372865 0.75137671
0.17030781 0.63647643 0.01224880
0.45985003 0.71830947 0.65859465
0.69667201 0.98541937 0.11955909
0.91204311 0.06124479 0.50269237
0.87207197 0.70583277 0.03213457
0.83539504 0.69386546 0.54779491
0.49124368 0.15496931 0.15980690
0.47956739 0.10845518 0.55925714
0.36758274 0.72379682 0.11119083
0.21939995 0.64191551 0.45654448
0.97761465 0.12625966 0.12212273
0.01660498 0.39201173 0.56881134
0.76672203 0.67798890 0.08444971
0.78750220 0.60502261 0.69950685
0.20751467 0.00826605 0.36183235
0.37511720 0.97698604 0.78851033
0.30449958 0.65373027 0.01716253
0.45657183 0.36127418 0.78559980
0.84621253 0.14049392 0.99087070
0.75331461 0.84399368 0.56830118
0.74787459 0.66686547 0.90784196
0.89103769 0.55777902 0.54848663
0.40667237 0.41485627 0.00782776
0.30287307 0.05091180 0.63041563
0.47901841 0.62183678 0.13573404
0.40016448 0.57338977 0.51361588
0.75660125 0.14889242 0.08573704
0.78545637 0.15270041 0.56210349
0.02573766 0.52429466 0.89751893
0.88081977 0.71664466 0.69045653
0.26705302 0.15944139 0.09520988
0.30185310 0.15029295 0.51198871
0.24247943 0.85600542 0.06175211
0.21042362 0.85668112 0.56911233
0.90002783 0.01977422 0.06617651
0.10145675 0.27340914 0.69434477
0.23699163 0.59842236 0.32136430
0.71421512 0.64970386 0.47535479
0.84915194 0.55206875 0.24204806
0.28943512 0.39048439 0.81427131
0.26833525 0.68179964 0.60503480
0.11505566 0.81195439 0.01610703
0.81154845 0.46165045 0.35264841
0.12571022 0.23161502 0.89943385
0.79692809 0.09302505 0.21758796
0.84365242 0.97513698 0.80515127
0.25975712 0.39922411 0.35985139
0.39224605 0.26838633 0.86009201
0.39242264 0.94980203 0.45961708
0.44720201 0.81705677 0.84664564
0.80915500 0.31704368 0.57408199
0.91664688 0.40578104 0.99610666
0.86281155 0.00111541 0.37297774
0.96004537 0.78812015 0.85132910
0.34304002 0.27567301 0.42957335
0.16621584 0.08334633 0.77003294
0.34789115 0.78061623 0.49302261
0.84856952 0.50318565 0.84858837
0.95926908 0.43641020 0.41980949
0.83938121 0.24528350 0.90164704
0.78254371 0.86370260 0.42356775
0.73648516 0.83514554 0.91316502
0.41392263 0.41529422 0.49714169
0.39002372 0.26099118 0.16126820
0.25985739 0.83170290 0.41966168
0.41320174 0.56764591 0.01091455
0.76374870 0.34855860 0.41973232
0.98547496 0.35252188 0.85021458
0.79874013 0.89738838 0.29219015
0.78676926 0.87071035 0.77181835
0.34936139 0.25376223 0.59277296
0.28464743 0.33171249 0.95580975
0.49654587 0.92482973 0.38574373
0.58912645 0.90829601 0.99882294
0.72537070 0.39839704 0.21575340
0.80714012 0.31183689 0.05688369
0.92915930 0.86279455 0.46144186
0.86187417 0.98621218 0.21098414
0.30473667 0.51931957 0.14931549
0.48693976 0.43725029 0.90200674
0.39826499 0.76430481 0.36102712
0.22131559 0.02713684 0.86732412
0.88847098 0.35231564 0.25440247
0.93366450 0.54710617 0.08053391
0.19151542 0.76364821 0.12137751
0.66368031 0.03228023 0.67509437
0.36432883 0.62245353 0.63555984
0.15207032 0.61996240 0.89903181
0.61875832 0.86668755 0.62866350
0.86820994 0.38152605 0.88569946
0.37402162 0.15076355 0.12243082
0.37684160 0.38109314 0.38786234
0.62142542 0.63490547 0.37499892
0.13708210 0.37095812 0.13120192
0.13905787 0.35663132 0.62421784
0.64166162 0.63371449 0.86180047
0.85193555 0.87061282 0.87594838
0.12031878 0.12616464 0.35980861
0.63743437 0.11822727 0.84124448
0.61002906 0.38744444 0.15947945
0.88339343 0.12470273 0.62874156
0.36592734 0.88471770 0.87562155
0.00260485 0.02992817 0.01022260
0.02320665 0.03015423 0.51544832
0.98618539 0.49588000 0.00209491
0.98427396 0.50258793 0.50858752
0.51188716 0.99375062 0.99739636
0.49356123 0.97175355 0.47972075
0.50217236 0.48886175 0.99791966
0.50214886 0.49923474 0.50114183
0.98533791 0.24276436 0.24881209
0.99855788 0.25005427 0.77019736
0.99857968 0.74474361 0.23519744
0.97511055 0.74100165 0.74449363
0.49906166 0.26299779 0.26042585
0.49677361 0.25087961 0.74515211
0.45512447 0.73453565 0.23732746
0.50524010 0.77077964 0.75237820
0.25208268 0.98998885 0.24583798
0.25914674 0.99661721 0.75083636
0.24701370 0.50183559 0.26867467
0.25320603 0.51011075 0.76525273
0.74102395 0.99023723 0.25375313
0.76713865 0.98930942 0.72869773
0.73980540 0.50442682 0.24380565
0.75155918 0.48497040 0.74952717
0.25806590 0.23264426 0.01436109
0.25170591 0.25343208 0.51214622
0.23360349 0.74834547 0.00716460
0.22783318 0.75218935 0.50150209
0.76572127 0.22602615 0.98983097
0.75588222 0.23802108 0.49941264
0.75026963 0.74130464 0.99337013
0.75271178 0.77125099 0.48206499
0.44485163 0.20872214 0.43237091
0.48345249 0.21282652 0.91977445
0.43886489 0.68680419 0.44151956
0.41235293 0.72016886 0.92980916
0.95672617 0.18764736 0.45223244
0.94882892 0.20002101 0.94245170
0.92451856 0.68126448 0.44996030
0.95841628 0.66514967 0.94245073
0.18101609 0.06204251 0.05711084
0.20150958 0.06967048 0.56636392
0.20386102 0.54481651 0.07726070
0.20487549 0.56800964 0.55414811
0.67498665 0.07012760 0.02180892
0.71889113 0.05902856 0.57202907
0.69179072 0.56343433 0.06500513
0.67529384 0.54501831 0.55509529
0.31270428 0.05524561 0.43999092
0.31478082 0.04383394 0.94665270
0.31201725 0.56178930 0.43533329
0.31381939 0.54554137 0.94778634
0.80776726 0.08054416 0.44185504
0.81404828 0.05511185 0.92168421
0.80522268 0.57255758 0.45488914
0.77735535 0.55708321 0.91767531
0.06862671 0.20845791 0.06050447
0.04949345 0.20343066 0.58834124
0.07585206 0.69687468 0.06701116
0.05226999 0.68604047 0.55468975
0.55280169 0.16085261 0.05693937
0.55724232 0.19320788 0.55857077
0.53881867 0.66911802 0.03135907
0.54300727 0.68332317 0.56816334
0.13465950 0.11343705 0.88768381
0.11568936 0.61231978 0.38671660
0.63203123 0.12357427 0.37504352
0.43730589 0.46111511 0.19387694
0.45489611 0.44116762 0.70787201
0.44893739 0.95024029 0.18750588
0.44563807 0.96262564 0.68031904
0.91955101 0.45972556 0.18459432
0.96245318 0.43274907 0.69058148
0.96060710 0.92006459 0.20233882
0.95394803 0.94201257 0.69700926
0.17482613 0.32482342 0.31330318
0.18320901 0.31616883 0.81035683
0.18941434 0.81016195 0.31712174
0.18110454 0.79811538 0.80046680
0.69272769 0.28790087 0.30528698
0.68803371 0.30369984 0.80961849
0.67330083 0.82016993 0.30508275
0.67821817 0.80332774 0.79486249
0.31058056 0.30996506 0.22883900
0.30850120 0.30519351 0.70750287
0.28404842 0.78821813 0.18818235
0.30020331 0.80878495 0.67474156
0.78276319 0.30392654 0.18037954
0.80424807 0.32296778 0.69527294
0.79653274 0.82074427 0.18441208
0.79821650 0.80243170 0.67461830
0.03888990 0.42296289 0.29804432
0.06661947 0.44635194 0.80644402
0.06670468 0.96589751 0.31704319
0.07563826 0.92830858 0.81238268
0.55017202 0.45536228 0.31473765
0.56779031 0.46169209 0.81805300
0.57330434 0.94373542 0.30865326
0.57659320 0.96881621 0.78314753
0.13453009 0.87045392 0.11488768
0.11625559 0.86705679 0.61988373
0.62235624 0.37855498 0.61846519
0.62576407 0.89327017 0.11177195
0.19469722 0.19241896 0.20783316
0.18472026 0.18463039 0.71134339
0.17167167 0.67273921 0.21433296
0.20049301 0.67515446 0.69231432
0.68394070 0.16822894 0.18890526
0.69222748 0.20318017 0.67657506
0.66613371 0.72371029 0.17490547
0.69124312 0.68139877 0.68291455
0.44534741 0.04549389 0.32162899
0.45782372 0.05736333 0.80848481
0.43382963 0.58260178 0.31641600
0.43700211 0.57872309 0.80463912
0.92689524 0.05630869 0.29433553
0.95775822 0.03647866 0.82457500
0.93083683 0.52387107 0.34248892
0.94793337 0.55684636 0.80191830
0.05820203 0.05884875 0.18780767
0.07292177 0.04884053 0.69954069
0.02428693 0.57252844 0.20765906
0.06125815 0.56713410 0.68875598
0.55538538 0.06331588 0.19713479
0.56556583 0.09081465 0.68336888
0.56465151 0.58008130 0.20379923
0.55580465 0.56641304 0.68150159
0.28957745 0.19307562 0.34962446
0.30008110 0.19428667 0.82907079
0.30355103 0.69855524 0.31911298
0.32134337 0.71197342 0.81010026
0.81985413 0.17895913 0.28985306
0.81871183 0.19793656 0.78831422
0.77999482 0.69214083 0.29117346
0.81209586 0.69509264 0.79796977
0.38474516 0.13218612 0.61411978
0.36548890 0.61530520 0.11048438
0.85692490 0.11516009 0.12002453
0.86321115 0.63664453 0.12831343
0.89326652 0.62149263 0.63406787
0.20467091 0.43593561 0.45900250
0.20373693 0.42412271 0.95576787
0.17647403 0.95618871 0.45061978
0.18904432 0.93739865 0.94606242
0.69999710 0.44755017 0.41755814
0.67551371 0.43415955 0.95066672
0.70785137 0.94806214 0.43962088
0.68653691 0.94173551 0.91979542
0.44464942 0.29566325 0.06211476
0.44520085 0.32194835 0.56020305
0.44789018 0.80584970 0.06425314
0.43406901 0.79563948 0.56514626
0.94854208 0.32418150 0.06527369
0.92902212 0.30671790 0.57192014
0.94373323 0.79720973 0.04416721
0.93467433 0.79960100 0.56351105
0.05043381 0.33014761 0.47177278
0.04970649 0.32871107 0.93881910
0.03577503 0.80810182 0.44554551
0.05989731 0.78907983 0.92236863
0.56358282 0.31818343 0.45210996
0.59048263 0.31109367 0.99512566
0.56017277 0.79859566 0.45015852
0.55194941 0.80408791 0.93072261
0.31422002 0.41889687 0.06886514
0.32240007 0.44674215 0.57058679
0.30966317 0.94843129 0.07717349
0.31297780 0.94279716 0.55640748
0.81004236 0.44270752 0.04687694
0.79942379 0.43861768 0.55154577
0.79544020 0.94551762 0.04205684
0.83813365 0.95464813 0.53933070
0.38464151 0.37882849 0.87923114
0.37158442 0.87038298 0.38212126
0.88305266 0.35034288 0.38259143
0.87515865 0.87119762 0.36319238
0.24786942 0.99604011 0.00757199
0.25006818 0.00644804 0.50413449
0.26184289 0.48270021 0.01324893
0.26385590 0.50175766 0.50652173
0.75104589 0.00758134 0.98016167
0.76327542 0.00816847 0.49707666
0.73720583 0.49987308 0.99978080
0.74385720 0.50195921 0.49381595
0.24461965 0.25504188 0.27775436
0.24318081 0.24656331 0.76017983
0.23595743 0.74174552 0.25672924
0.25541799 0.75289044 0.74556295
0.74502188 0.23200884 0.24414232
0.75170645 0.25613436 0.74516103
0.73078176 0.76596051 0.24238520
0.74359650 0.74599620 0.74064414
0.00384112 0.00284337 0.25333977
0.01823506 0.98790300 0.76008567
0.98472850 0.49268370 0.25814214
0.00814842 0.49777681 0.74745195
0.50451421 0.99510728 0.25908582
0.50992787 0.01726523 0.73031504
0.49556712 0.52067239 0.25320243
0.50277258 0.51559270 0.75516495
0.99863060 0.26124733 0.00475432
0.99984253 0.25861349 0.51892301
0.00475450 0.73488032 0.99234809
0.98949233 0.74155836 0.50153321
0.51131520 0.24401526 0.00976214
0.50456257 0.26015637 0.50454188
0.48652222 0.75046834 0.99254659
0.49246080 0.74002673 0.50893443
Direct configuration=      2
0.00833444 0.36472177 0.16370095
0.99667403 0.11893092 0.62505601
0.00023268 0.60613093 0.41035042
0.98090944 0.62695298 0.75342666
0.73037363 0.02939231 0.35497561
0.59853993 0.19514384 0.77929604
0.68610133 0.62389222 0.28718501
0.78264611 0.39231238 0.79861931
0.19642852 0.26228760 0.41990938
0.08365965 0.10028096 0.00474090
0.21990919 0.40493770 0.19297389
0.34712307 0.49867029 0.84823830
0.60778390 0.19600890 0.28031433
0.67206342 0.99641699 0.82921630
0.53145720 0.49882087 0.61808014
0.38922657 0.95590363 0.95114296
0.32471549 0.97964497 0.35941589
0.33083405 0.91516038 0.68797257
0.16813076 0.53052448 0.18525298
0.35219303 0.48804351 0.66528403
0.58635095 0.00241670 0.40177867
0.53028539 0.07239722 0.95386387
0.66269454 0.76543709 0.39622506
0.54481017 0.38370832 0.05616489
0.95238467 0.25558610 0.34508487
0.03362170 0.13994808 0.82146539
0.07521735 0.66886070 0.29869026
0.14254890 0.71192997 0.86104898
0.64391573 0.06173148 0.27157200
0.76247655 0.10667489 0.73471443
0.52283428 0.60402289 0.44501760
0.84826780 0.83482888 0.96901837
0.27808079 0.11041228 0.31025736
0.00911376 0.81071302 0.13525214
0.13318100 0.71871543 0.43897926
0.03352456 0.85658885 0.68788874
0.74015023 0.20280886 0.39335694
0.71231020 0.33987654 0.94203595
0.83582020 0.75851238 0.39381930
0.50902983 0.62232960 0.89827174
0.09657501 0.16770734 0.25869677
0.07388188 0.01673406 0.88728980
0.13962567 0.48327169 0.34283025
0.86801223 0.71949559 0.19526844
0.50531626 0.13158392 0.37096570
0.84939206 0.00281949 0.64642899
0.66170857 0.50416395 0.33398710
0.68392262 0.51919180 0.85685029
0.17763714 0.54855547 0.73753384
0.10024281 0.55664385 0.49556389
0.12203642 0.87818996 0.23081513
0.03616277 0.06482444 0.40636752
0.66449501 0.23435763 0.06693577
0.66232204 0.39897032 0.73059993
0.53664068 0.66551442 0.29699237
0.71897595 0.88935247 0.70920357
0.18104394 0.27563269 0.10255342
0.17223375 0.20203678 0.58368816
0.28218890 0.78254275 0.91041394
0.17227212 0.92115235 0.71410463
0.72109708 0.16476566 0.90683922
0.51199556 0.35405758 0.64879812
0.56256935 0.80861731 0.16613884
0.53105015 0.85347369 0.70899879
0.21815093 0.52099606 0.88177555
0.21104300 0.35918233 0.52879544
0.22313390 0.95743376 0.16552463
0.07477522 0.88821810 0.50669798
0.54002235 0.37814247 0.22020573
0.62890806 0.27878251 0.59859870
0.53141624 0.95983532 0.11123269
0.63782552 0.78459286 0.54400720
0.10425353 0.42540929 0.01933052
0.84672939 0.26815869 0.44212500
0.04851140 0.94143574 0.10112536
0.10965272 0.00599248 0.57761812
0.46931867 0.31474880 0.35121073
0.64765801 0.52902076 0.70756066
0.72128292 0.83593246 0.07517911
0.60275683 0.71777321 0.77411494
0.34842297 0.50063825 0.30401689
0.99549580 0.60299182 0.59895980
0.96090194 0.84596238 0.29860477
0.25634584 0.91479463 0.82772091
0.77709315 0.52369877 0.13738155
0.60992430 0.43494812 0.51577320
0.62501798 0.68236658 0.96238827
0.49756019 0.92866000 0.58731393
0.24186111 0.13599043 0.95755579
0.23027992 0.41981994 0.66475031
0.35383792 0.04000842 0.18789531
0.13592246 0.75562910 0.60381721
0.63572104 0.49608563 0.16661364
0.71852287 0.45499240 0.62458625
0.65169655 0.90967357 0.23436643
0.92919598 0.25253466 0.67874211
0.37688759 0.23076376 0.03601781
0.46618931 0.19362231 0.65059852
0.37389003 0.64837134 0.22531890
0.31673865 0.62129974 0.73899324
0.89030024 0.19366415 0.19386949
0.62705309 0.16146821 0.47349959
0.97532762 0.63513608 0.17865939
0.87931551 0.50847177 0.69573062
0.31529514 0.89980993 0.26964223
0.36944349 0.12521073 0.74195114
0.15604217 0.64045350 0.00676651
0.43806672 0.73306103 0.66468475
0.71091368 0.96962668 0.12311894
0.91842139 0.09482490 0.51076396
0.84312916 0.68634973 0.03115791
0.83426264 0.70698351 0.55425460
0.49175117 0.14173159 0.13864138
0.43180613 0.09107310 0.54701651
0.32804028 0.74517896 0.08676641
0.22684254 0.63311740 0.45749810
0.98657291 0.12056759 0.11761238
0.03761266 0.37906408 0.58506267
0.73083136 0.66848950 0.09802183
0.77986378 0.60386888 0.69240231
0.17205799 0.02733822 0.32116652
0.36776086 0.98641784 0.80270871
0.29947354 0.62185625 0.02614407
0.45227446 0.36084063 0.78763213
0.87241574 0.17280366 0.01969851
0.75396191 0.85885905 0.56193678
0.74332257 0.66312743 0.90214093
0.89006646 0.53913297 0.54324418
0.38598211 0.43276234 0.98454497
0.30034133 0.03056900 0.63870736
0.48277196 0.67592787 0.13264045
0.41659403 0.59861328 0.53978763
0.76327785 0.10621629 0.06306025
0.74903264 0.17709742 0.58101696
0.02847417 0.56805158 0.92792044
0.89902848 0.73562386 0.67980315
0.27592981 0.16458847 0.09626541
0.28720956 0.13907950 0.52888866
0.24926251 0.84871941 0.08417504
0.22608067 0.85178455 0.56573537
0.88958043 0.02692275 0.01792992
0.11199266 0.30515608 0.72823592
0.18715604 0.58889997 0.30319726
0.68711940 0.65577986 0.49326874
0.81665515 0.59088032 0.25714770
0.30173862 0.37800282 0.81358362
0.26492343 0.68427788 0.60397032
0.12819278 0.85153228 0.00984653
0.80937866 0.47914439 0.34208214
0.16145901 0.23997810 0.90934250
0.77921464 0.11051261 0.21641754
0.86314664 0.97630611 0.84798352
0.26235888 0.38817551 0.33967869
0.36751713 0.26621281 0.88170491
0.40068923 0.94060525 0.46594170
0.43370062 0.76544584 0.85206566
0.79209840 0.34364348 0.56414865
0.91867415 0.41660196 0.99140609
0.88004150 0.98744007 0.36820697
0.98447038 0.83939903 0.85055096
0.34689380 0.27785410 0.44285687
0.18718230 0.09015386 0.75249610
0.35330632 0.78035016 0.46852408
0.82165081 0.50812005 0.83600744
0.97418168 0.39042511 0.39301676
0.84474803 0.25738047 0.90899111
0.77608428 0.87187858 0.43382733
0.70484437 0.80432657 0.91950346
0.39781981 0.43071193 0.49745011
0.40627619 0.25516533 0.18809044
0.24055481 0.85101268 0.42178150
0.44785727 0.57863157 0.04313037
0.73297129 0.33538513 0.41559564
0.99840763 0.36635540 0.84884904
0.81244219 0.90284596 0.26227997
0.85302719 0.89454087 0.74064316
0.32440010 0.24853184 0.60353032
0.27539215 0.33962122 0.97591018
0.48873299 0.85244799 0.36397871
0.58866978 0.89325303 0.99476224
0.71370961 0.39477748 0.25116038
0.81401816 0.29924213 0.07483826
0.92593044 0.86296437 0.45940190
0.86916096 0.02110708 0.18954057
0.33229772 0.53281795 0.13627805
0.48000691 0.44997743 0.89549514
0.36082569 0.77136092 0.30341509
0.23362059 0.03384540 0.86018186
0.89059581 0.34505382 0.26209968
0.92167820 0.52904963 0.09919054
0.16574852 0.73924487 0.10727746
0.63542986 0.01541854 0.66361273
0.37665185 0.62134661 0.64106271
0.14146835 0.60427231 0.88639812
0.62101432 0.87584566 0.61254625
0.85668362 0.37045644 0.88052384
0.37987399 0.14823226 0.15238650
0.36570483 0.38827692 0.38658809
0.62702158 0.63637860 0.38638533
0.13264001 0.37423076 0.13404301
0.13376300 0.37238633 0.64428923
0.62427681 0.63975059 0.86236131
0.86385594 0.87164230 0.85917335
0.12867840 0.12520614 0.36579076
0.64285750 0.11474680 0.85087902
0.62853785 0.39045884 0.14252601
0.88784296 0.10281799 0.62607111
0.36510318 0.88648806 0.86491962
0.01187608 0.00023382 0.00758264
0.01563458 0.02120975 0.50056107
0.01747151 0.48517003 0.01162644
0.99629742 0.51130091 0.50688929
0.49834904 0.96954884 0.99498646
0.50558750 0.99200256 0.49618494
0.49093897 0.48926804 0.99764824
0.49063545 0.50194291 0.51278167
0.98682080 0.23181616 0.23303710
0.00445127 0.24167902 0.76470004
0.98775776 0.74872488 0.23850377
0.98265693 0.76913506 0.75359872
0.49864025 0.27572326 0.24269923
0.50525878 0.26627691 0.74254772
0.47308058 0.75154939 0.23386817
0.50119686 0.75955523 0.75196265
0.26653970 0.00878157 0.26038201
0.26834694 0.99719536 0.75421679
0.23355208 0.49509986 0.26718711
0.26345180 0.48592778 0.76506241
0.74722666 0.00332561 0.23578085
0.75936595 0.98573622 0.73606727
0.73501218 0.50898085 0.24651032
0.75055983 0.49362040 0.75069469
0.25873365 0.23877156 0.01418877
0.25452121 0.24383290 0.51550961
0.24670764 0.73959849 0.00615132
0.23556333 0.75479332 0.50640787
0.76803496 0.22325832 0.00173688
0.73672427 0.26073169 0.49844156
0.74592627 0.74595768 0.00330031
0.74045619 0.75670818 0.49145696
0.44507970 0.22033587 0.42435844
0.45967121 0.21486659 0.92781519
0.44629075 0.68814766 0.45499914
0.40976725 0.68459216 0.94281549
0.95092498 0.18556008 0.45380306
0.95306509 0.19804832 0.94541745
0.92336878 0.69535747 0.45422232
0.95770991 0.65466530 0.94358924
0.20042315 0.05940431 0.06309261
0.21403829 0.06331990 0.57401074
0.20534097 0.54373898 0.06959933
0.19185887 0.56586740 0.57993247
0.67414922 0.03599926 0.04157198
0.70995985 0.07584248 0.56179575
0.68783832 0.56802187 0.06543934
0.67020805 0.54611860 0.54632633
0.31804381 0.06521695 0.44044206
0.32363165 0.05520136 0.94605462
0.31830743 0.56137101 0.47127343
0.31653896 0.53601965 0.95527797
0.82449826 0.07090106 0.44060699
0.79574006 0.05026788 0.92844171
0.79172305 0.58088283 0.43999046
0.79241216 0.56320782 0.92961470
0.06263743 0.20808187 0.06968749
0.05406097 0.22103463 0.58816612
0.05917027 0.69418257 0.06896190
0.06258941 0.69506645 0.54816841
0.55663531 0.16456934 0.04381816
0.56014336 0.20187936 0.55019594
0.53719514 0.64784859 0.02791427
0.56136854 0.69540105 0.56319578
0.13845292 0.10839637 0.88271177
0.12013498 0.60968776 0.39820357
0.62091072 0.10995482 0.37315107
0.44113898 0.46853395 0.18784640
0.45321203 0.43927239 0.69812705
0.44732157 0.94376069 0.19207913
0.44527765 0.94773239 0.69208867
0.93622924 0.44160847 0.18776291
0.97326564 0.41854641 0.69394871
0.94710520 0.92969307 0.17526033
0.94904133 0.93171740 0.69110993
0.17596434 0.31569149 0.31346017
0.20190803 0.30828157 0.82979331
0.16101893 0.80033468 0.31377670
0.20126670 0.82078955 0.80239508
0.68644734 0.29010024 0.31205938
0.68406679 0.30926925 0.81258092
0.68564697 0.83153707 0.30109531
0.70560303 0.80558149 0.79804779
0.32007467 0.33402241 0.23044851
0.30094687 0.31757060 0.70600449
0.28903717 0.79801392 0.19777796
0.30372616 0.79510177 0.66515604
0.80181391 0.31599643 0.18609549
0.80580774 0.31247149 0.68640681
0.79753783 0.81010740 0.17519640
0.79436921 0.80210344 0.67149537
0.04432505 0.42815814 0.29971032
0.07561956 0.44495859 0.81964825
0.05323204 0.93910594 0.30375416
0.06381792 0.92388491 0.79876187
0.54738184 0.46094713 0.31057902
0.57138895 0.45859155 0.81122577
0.55797575 0.93948801 0.30830871
0.57989032 0.95367904 0.77725031
0.13139954 0.87029833 0.12012995
0.12370793 0.88880163 0.61532004
0.61717349 0.39880717 0.63317499
0.62349056 0.88786056 0.11559706
0.21740034 0.20075438 0.20115374
0.17269362 0.20272427 0.70471568
0.16912130 0.67710287 0.21704806
0.20310889 0.68154184 0.70634620
0.68625636 0.19620329 0.18685780
0.70168790 0.19315399 0.68547619
0.66396028 0.70425768 0.18816151
0.68350247 0.68233706 0.69445242
0.43575646 0.05657905 0.30937900
0.45340941 0.06793632 0.81064285
0.43599709 0.58398673 0.31002537
0.44263845 0.55841411 0.82304747
0.94558105 0.05578757 0.29507453
0.96154430 0.04860044 0.81316511
0.91895289 0.55201263 0.30900250
0.93801270 0.52693593 0.80266007
0.06205404 0.05434833 0.17753887
0.06940668 0.05823955 0.70220033
0.05044151 0.55988199 0.21735496
0.06720556 0.55537423 0.70540136
0.55533330 0.06776518 0.19561703
0.54201045 0.07866752 0.67919442
0.56452794 0.58676871 0.19921285
0.53961177 0.57836402 0.69248835
0.29807145 0.21761105 0.34704477
0.30693071 0.18470905 0.81291579
0.29003010 0.68642723 0.32565700
0.31836052 0.71677199 0.80992554
0.80693070 0.18369720 0.29572526
0.81029368 0.19226524 0.80683493
0.78203682 0.69142745 0.30039516
0.81923598 0.67689409 0.78619711
0.36872504 0.13541457 0.62296728
0.36872410 0.63363909 0.11889521
0.87364981 0.09717147 0.11452629
0.86003498 0.61823001 0.13534988
0.87754479 0.61950208 0.62720436
0.17822632 0.45716525 0.46564597
0.19266741 0.42214716 0.95214517
0.18997302 0.95307521 0.44270054
0.21103767 0.93347709 0.94723514
0.70672618 0.44353695 0.42074485
0.68024866 0.44874748 0.96020694
0.69858383 0.95681736 0.45318072
0.68777842 0.91771484 0.91881727
0.46538809 0.30512496 0.07006764
0.43885395 0.31780964 0.55755361
0.44389376 0.78620703 0.06687866
0.43356735 0.80294130 0.56896512
0.93889915 0.32125158 0.06574336
0.92510914 0.29982742 0.55985290
0.93645070 0.79833023 0.04514506
0.95455153 0.81428889 0.56387613
0.05198088 0.30614688 0.44196383
0.05867653 0.32285591 0.94777942
0.04220981 0.81083438 0.43030956
0.05775271 0.78575917 0.93099954
0.56120031 0.33026348 0.43603716
0.59721758 0.29931513 0.98874966
0.55515462 0.81902840 0.44991697
0.55036556 0.78653051 0.94357104
0.31213169 0.42328575 0.07207207
0.30214560 0.43584893 0.57405032
0.32133487 0.94617782 0.06756698
0.30783856 0.93632446 0.55659398
0.81272480 0.45014736 0.05894727
0.81045944 0.46074017 0.54486081
0.79485370 0.92489761 0.04838108
0.82429828 0.94892209 0.54320157
0.39311267 0.38552766 0.87938840
0.35726046 0.86757853 0.37119657
0.86357682 0.35054363 0.36817003
0.86571781 0.86501659 0.36293365
0.26286712 0.00088011 0.01123103
0.25355269 0.00628526 0.49929931
0.25256614 0.47887148 0.01299227
0.24810873 0.50756763 0.52018847
0.73168218 0.98078104 0.97955005
0.76187673 0.01584452 0.50290924
0.74826426 0.51014085 0.00390766
0.74344455 0.50982133 0.48700002
0.25173807 0.26825505 0.27104773
0.24835311 0.25386959 0.76124195
0.22587114 0.74219026 0.26906728
0.25794971 0.75434012 0.74352815
0.75197935 0.24684396 0.24276896
0.75264367 0.25416999 0.74894831
0.73126196 0.75901933 0.23807414
0.75443158 0.73996295 0.74055880
0.00344881 0.99138501 0.23254760
0.00918519 0.99015960 0.74528286
0.98126043 0.49730162 0.25671669
0.01634777 0.48265245 0.75093552
0.49951201 0.00460391 0.24968044
0.50890401 0.01716855 0.74773590
0.49735491 0.52389280 0.25181203
0.50336080 0.51134100 0.75532118
0.00524749 0.26180114 0.00490183
0.99675668 0.25107044 0.51178941
0.00308713 0.72937948 0.99604140
0.99258386 0.75008999 0.50011375
0.51636681 0.24699579 0.00624138
0.50201891 0.27177066 0.48929397
0.48447674 0.73005782 0.99847773
0.50532167 0.75305551 0.50793455
Direct configuration=      3
0.02972296 0.29792092 0.14722117
0.99622541 0.10648153 0.62357111
0.01585966 0.60009565 0.40105722
0.94062289 0.63975495 0.76452700
0.71250462 0.03132801 0.34788726
0.57393166 0.14037928 0.76136532
0.65994734 0.60565433 0.25985115
0.80351712 0.38833144 0.76526939
0.20926308 0.21589676 0.40781882
0.11190764 0.08235983 0.99011074
0.22236335 0.39561096 0.18476728
0.36302351 0.47853371 0.87275388
0.60658483 0.22866620 0.30726107
0.67273835 0.99676931 0.83073692
0.52911327 0.50346139 0.62407650
0.40295878 0.91562412 0.97606982
0.35110290 0.97635929 0.36364171
0.31722882 0.91349529 0.68252628
0.16484093 0.54306621 0.17708372
0.32652919 0.50572260 0.68206663
0.57251926 0.02877030 0.41801124
0.53587802 0.10568264 0.94085976
0.64043234 0.74721758 0.38863136
0.57582054 0.39126847 0.04225285
0.89447678 0.24287296 0.33352972
0.05626683 0.17106419 0.83042490
0.09208677 0.69545802 0.29791889
0.10719458 0.71913191 0.79797064
0.65509531 0.09404042 0.25007220
0.75692064 0.09188867 0.75623027
0.55307008 0.60618814 0.48486754
0.84630399 0.80822815 0.95553011
0.25656598 0.12218568 0.28435385
0.01882737 0.78742646 0.12107068
0.13103535 0.72991404 0.44655472
0.03315420 0.85429510 0.64946897
0.72989235 0.17659352 0.38482117
0.74136753 0.32934460 0.90435961
0.84883040 0.77166073 0.41331433
0.53036414 0.59017343 0.93177893
0.10084641 0.20946917 0.27199562
0.04003368 0.00557403 0.87791148
0.13564449 0.49099532 0.34911081
0.86880159 0.73116989 0.18692350
0.51059680 0.13698290 0.36700839
0.83370469 0.02169253 0.65556575
0.65391763 0.51035731 0.34492936
0.68805684 0.51769913 0.84384401
0.18165860 0.58083785 0.70406592
0.11164201 0.56718049 0.47803815
0.13497901 0.84680179 0.22234123
0.02797700 0.09337587 0.39106270
0.66222012 0.24976004 0.02338101
0.64320728 0.38329149 0.72932663
0.51750996 0.66420978 0.29691945
0.67125202 0.90012550 0.73808758
0.18866708 0.28300712 0.09341753
0.16907540 0.21254473 0.58809628
0.25066788 0.74688636 0.90598589
0.16055110 0.92573633 0.72288885
0.72622534 0.17034011 0.90054528
0.51471033 0.35093776 0.63420310
0.59483301 0.80852969 0.21448694
0.52680054 0.86474275 0.73480391
0.18001504 0.51306910 0.85640201
0.19016483 0.34952591 0.55485919
0.16346738 0.96583972 0.18062207
0.10071819 0.89459753 0.50212728
0.53733761 0.37412293 0.20377766
0.65384044 0.28000224 0.56209779