Li192 P32 S160 Cl32
1.0
20.312311 0.000190 -0.000113
0.000190 20.312339 -0.000033
-0.000113 -0.000033 20.312424
Li Cl S P
192 32 160 32
Direct configuration=      1
0.04478286 0.36026365 0.21745962
0.97996324 0.15187274 0.66793208
0.01068239 0.60288430 0.40436922
0.96368882 0.63523738 0.72827595
0.72940869 0.03740177 0.35523519
0.59979135 0.17325769 0.76193975
0.71144006 0.61805950 0.27488413
0.74848904 0.39569991 0.76523003
0.20204195 0.21263550 0.39580216
0.10407032 0.11080551 0.99464522
0.22521239 0.38396943 0.21193368
0.34399915 0.49312373 0.85271821
0.61518073 0.21231665 0.27972943
0.67864207 0.01104776 0.83209509
0.53982798 0.48022544 0.61452723
0.41088856 0.91232998 0.98841118
0.33856911 0.98341698 0.34514324
0.32458328 0.93211138 0.69427917
0.15696780 0.50028881 0.17917405
0.33013345 0.49210054 0.66700101
0.58982395 0.01833938 0.40845713
0.52463607 0.08951202 0.91459401
0.65814296 0.74902187 0.40528464
0.58849086 0.42131974 0.02700533
0.96451180 0.27976173 0.37709571
0.01894560 0.16330033 0.84377426
0.08870566 0.66334788 0.27728469
0.15957842 0.73861182 0.90113268
0.63953376 0.05444688 0.26303731
0.79461654 0.11017782 0.73673263
0.53136881 0.60213122 0.44305608
0.85277911 0.83980333 0.99286709
0.22618535 0.10045498 0.26555768
0.02198876 0.83237330 0.15089979
0.13137790 0.71823905 0.44956426
0.01631784 0.84342298 0.66581645
0.73251023 0.19445164 0.38880037
0.68241676 0.30786058 0.93498646
0.84373077 0.75851290 0.40292824
0.52004928 0.60312663 0.92121853
0.08585052 0.16673284 0.25381566
0.04645055 0.02836425 0.89211452
0.15039712 0.50464453 0.34397369
0.88436517 0.72346773 0.20500374
0.50959715 0.13784970 0.35248596
0.84544235 0.00371151 0.65599562
0.66581829 0.49922982 0.33765624
0.69683791 0.51983433 0.86304480
0.15915054 0.58857958 0.76009951
0.11966776 0.54662156 0.47965388
0.15385684 0.89300855 0.23794745
0.03063910 0.04586548 0.38131241
0.66259912 0.26665490 0.08652821
0.60251762 0.35177333 0.72677877
0.54847420 0.65265735 0.27835780
0.70098625 0.89551749 0.71605638
0.16908337 0.27009693 0.08495552
0.17357519 0.18488926 0.55895755
0.31646812 0.72217200 0.94473707
0.16382593 0.91020357 0.73491699
0.72293242 0.14827355 0.93352987
0.51186996 0.33911585 0.62965928
0.52634669 0.83064902 0.15046208
0.53745738 0.86128674 0.70177927
0.20321328 0.52187418 0.87363688
0.20983279 0.35022766 0.53451570
0.21765414 0.96426527 0.14245134
0.11721140 0.86623559 0.51413016
0.53272181 0.36827647 0.20391080
0.63031391 0.29524114 0.52576356
0.54610585 0.96842812 0.11122179
0.65544051 0.73945057 0.57803284
0.08671909 0.41918868 0.02428159
0.85872494 0.28721172 0.48226922
0.07098515 0.97122166 0.09814210
0.11426122 0.98456121 0.61558354
0.46853508 0.31648942 0.34767721
0.65545057 0.59231565 0.75318751
0.73849367 0.83835975 0.09038478
0.58466958 0.73942576 0.83314033
0.35991421 0.48577869 0.31827075
0.99505068 0.59421479 0.59723730
0.97777822 0.85570650 0.34806740
0.26014575 0.89633416 0.84693594
0.79242207 0.53075787 0.14145799
0.59116574 0.42765290 0.49984744
0.64174546 0.76626854 0.02501021
0.54657514 0.88144782 0.53145265
0.24385773 0.15163848 0.91783668
0.16248676 0.42939101 0.72605347
0.35592034 0.01977980 0.19787673
0.14399736 0.75240590 0.60821940
0.65716246 0.49831251 0.17175147
0.69586217 0.47837975 0.64266216
0.65536849 0.90354994 0.23088289
0.92398424 0.31493480 0.69817456
0.36224276 0.22327809 0.03447857
0.47747843 0.18577048 0.64018144
0.39698892 0.63932701 0.24268496
0.30525669 0.61161108 0.74069636
0.90244745 0.19683581 0.20875979
0.64635188 0.15630069 0.48202049
0.98723635 0.65118176 0.14909371
0.85010335 0.50797041 0.67514314
0.29801729 0.87629468 0.28247333
0.38358438 0.12699556 0.74258827
0.16067689 0.63974984 0.99677095
0.48548344 0.66847284 0.66260482
0.70586591 0.97596962 0.12835333
0.90802352 0.09228288 0.51467699
0.86834468 0.69604996 0.03268331
0.84379487 0.69553827 0.54045699
0.48405972 0.10762618 0.08241546
0.44977152 0.04665415 0.60124828
0.39817265 0.73354493 0.13949995
0.24039916 0.64233305 0.45096427
0.98953678 0.10981090 0.10471978
0.02276318 0.40263356 0.58896237
0.75605423 0.66829327 0.09900276
0.79287355 0.61949476 0.71361232
0.17307314 0.99947935 0.34413083
0.35323395 0.99491558 0.83611714
0.26723123 0.65738175 0.09634694
0.42143462 0.34369917 0.76929741
0.87089297 0.20517978 0.03870195
0.74506804 0.84184881 0.57205336
0.73940397 0.66986394 0.91667142
0.88041539 0.54119171 0.53718637
0.40907206 0.39762879 0.99677191
0.27157635 0.07813133 0.66579937
0.48941440 0.61328884 0.11449350
0.40151736 0.58871134 0.52066316
0.75868789 0.14766302 0.08003607
0.76610880 0.17212909 0.58060560
0.01229932 0.58071230 0.91392146
0.89350535 0.73704229 0.66571897
0.25682063 0.15183475 0.08586573
0.31567946 0.13912043 0.52171078
0.25058729 0.83334694 0.08659334
0.23790675 0.84316410 0.59351285
0.88822558 0.04038287 0.03117726
0.10257790 0.26833301 0.68255827
0.22459825 0.60228745 0.29678967
0.71649991 0.63838797 0.46953614
0.84793945 0.58837119 0.24614588
0.28426297 0.38686088 0.79717012
0.28310055 0.69173737 0.60115642
0.14341425 0.84435451 0.00592681
0.83531630 0.47402708 0.35333644
0.15240965 0.24381879 0.91433781
0.78103441 0.10729485 0.21434662
0.84559350 0.99611637 0.84289542
0.25062784 0.40019904 0.35113547
0.36849716 0.26058273 0.89329133
0.38576824 0.94273647 0.47478915
0.41349740 0.77729080 0.82552256
0.73681902 0.33980038 0.58841531
0.91947488 0.41118052 0.98124405
0.88875794 0.98967671 0.38479482
0.95683743 0.78088498 0.85536208
0.33348717 0.26577659 0.41929845
0.15153974 0.09759071 0.76477764
0.35437486 0.78664582 0.48336422
0.84299904 0.49213253 0.83724803
0.97705414 0.41451850 0.42065723
0.84333220 0.26947471 0.91087596
0.75906945 0.85769237 0.42200177
0.75195932 0.82606444 0.89946487
0.40236366 0.41762909 0.48618046
0.41376881 0.23897580 0.17669629
0.25118968 0.83783737 0.41805400
0.38408560 0.54735791 0.03500768
0.76205707 0.33890108 0.40833160
0.99666652 0.34707873 0.84259477
0.79961916 0.89588232 0.28424550
0.84585841 0.89370962 0.75684633
0.33131497 0.24450493 0.59909262
0.27280948 0.34962618 0.95663776
0.48388680 0.89361484 0.38460604
0.59881375 0.91159957 0.99853469
0.73080686 0.39250180 0.22974621
0.80519155 0.32997605 0.06448010
0.90543187 0.89796364 0.48936822
0.85733369 0.00732400 0.17825241
0.32660012 0.51593468 0.17035426
0.47937821 0.43957478 0.88604680
0.40408079 0.76314960 0.34031034
0.20412124 0.02808617 0.86559422
0.89614082 0.35527783 0.27063766
0.92674340 0.52282783 0.09531607
0.14509300 0.74933787 0.10710085
0.66978545 0.03666394 0.67922179
0.37398117 0.61589498 0.63510108
0.12918935 0.61664589 0.88175439
0.63081087 0.85580915 0.61521517
0.88319265 0.37795691 0.87443431
0.37410662 0.13738581 0.12265196
0.36591978 0.37635193 0.37862535
0.63269751 0.62919288 0.37041534
0.13025419 0.38274691 0.13562533
0.12971449 0.36997099 0.62998235
0.62969530 0.62719805 0.86526831
0.86365601 0.87089621 0.87313540
0.13074692 0.11288582 0.35237841
0.63014876 0.11636455 0.86367711
0.63436583 0.38303330 0.13480737
0.87046990 0.11718555 0.62887057
0.37290004 0.88269183 0.87640472
0.00909625 0.03122105 0.01193523
0.97163850 0.00170460 0.47242760
0.99767503 0.49543163 0.00339532
0.00011262 0.51096566 0.50518485
0.50513861 0.99856533 0.00443206
0.49893799 0.97734123 0.48084758
0.48801788 0.49530266 0.99430123
0.49213985 0.50328787 0.50656559
0.99345874 0.25708617 0.25885618
0.00382885 0.25129703 0.75668275
0.00022387 0.74085994 0.22946581
0.97846944 0.75241923 0.74218849
0.50740982 0.26069432 0.25133179
0.51145926 0.26702674 0.72497590
0.47514552 0.73728019 0.23943006
0.50291920 0.75682735 0.74807707
0.25350652 0.98439346 0.25565268
0.25408762 0.99494385 0.76268434
0.24583755 0.48878714 0.26400558
0.25482220 0.50315961 0.76606905
0.74526762 0.99760269 0.24029648
0.76604982 0.99450958 0.74679783
0.75054935 0.50766380 0.25266667
0.75173618 0.51053929 0.75176855
0.24961900 0.23925486 0.99781496
0.25426398 0.24136248 0.50133561
0.22276877 0.74205311 0.01177893
0.23623351 0.75493611 0.50794139
0.75735632 0.24355200 0.00304602
0.73856226 0.25337778 0.49620137
0.76030832 0.75469353 0.00338141
0.74465510 0.75278800 0.49005697
0.43921595 0.20906394 0.42064342
0.45116634 0.19364984 0.95344386
0.43108890 0.68981566 0.44486150
0.43887727 0.70092259 0.92559549
0.94278085 0.19697593 0.46301475
0.94492020 0.19903868 0.94035373
0.93002762 0.68530610 0.45039022
0.94319219 0.68446874 0.93678903
0.19179438 0.05048641 0.06069116
0.19824010 0.05766580 0.56694302
0.19542465 0.55577076 0.07628712
0.21035269 0.57230839 0.55256682
0.68580191 0.05717868 0.04124470
0.69442839 0.06952688 0.56028161
0.69922116 0.55723943 0.06817574
0.67270923 0.55469080 0.54594615
0.31296469 0.04533137 0.44717151
0.30672398 0.05166926 0.93959348
0.32244819 0.54680551 0.43668921
0.29752405 0.56121375 0.94852378
0.80769783 0.06921334 0.44185648
0.81076241 0.05879693 0.93799896
0.80353664 0.55750312 0.44580129
0.79489688 0.55875834 0.93252981
0.05979826 0.20418246 0.06207106
0.05555323 0.20076988 0.58512473
0.05942822 0.67818364 0.05463124
0.05822335 0.68770746 0.55164279
0.56717822 0.19641510 0.06559890
0.55185255 0.20322314 0.54574697
0.55508010 0.67997189 0.03849234
0.55408065 0.67818547 0.54757026
0.12800969 0.12329305 0.88031086
0.13087842 0.61736565 0.38172261
0.63070259 0.12327096 0.36378417
0.43480562 0.45104839 0.21065094
0.44572411 0.44193223 0.69361091
0.44917586 0.93554149 0.18491876
0.45365101 0.95371149 0.67900802
0.94542818 0.44108005 0.19577151
0.95022039 0.43874639 0.68765804
0.95834517 0.93814308 0.17702990
0.94329598 0.94067808 0.69649982
0.18488831 0.30578716 0.30325381
0.19424089 0.30659790 0.81148738
0.19555482 0.80579450 0.31040934
0.18780565 0.81020974 0.80510966
0.69725721 0.30027637 0.30590343
0.68187059 0.30375864 0.80676595
0.69596744 0.81922808 0.31113403
0.68031743 0.80983372 0.80003058
0.31038403 0.30258128 0.19518944
0.31617089 0.30863450 0.70473198
0.30829864 0.79870293 0.19061381
0.31035542 0.80682574 0.68784014
0.81526028 0.31099821 0.18945394
0.80072813 0.31594635 0.69501695
0.80606832 0.81395418 0.19049056
0.79610333 0.81230145 0.68426074
0.05312773 0.43639260 0.31683925
0.06902782 0.43904120 0.80546481
0.06159869 0.94374216 0.30764193
0.06606726 0.94354133 0.80809868
0.56628875 0.43954362 0.30153243
0.56848228 0.44120457 0.80456241
0.56465360 0.95101083 0.30431268
0.58432272 0.95256393 0.77408086
0.13516549 0.87081625 0.12273861
0.12605807 0.86909932 0.62799443
0.61934940 0.38544839 0.61136727
0.62811596 0.88173623 0.11288588
0.19106066 0.18864687 0.18849490
0.19934677 0.18810010 0.69575640
0.19046579 0.68036564 0.20116913
0.20589827 0.68357681 0.69671355
0.69657932 0.19275827 0.18402382
0.70284293 0.18359642 0.69334939
0.68177995 0.70204599 0.19415618
0.69273025 0.68618557 0.68553474
0.43259255 0.05361916 0.29835686
0.45636895 0.05687764 0.81160852
0.45999684 0.56899329 0.32332600
0.44773443 0.55002900 0.82281035
0.94225929 0.05615822 0.29377765
0.94956059 0.05941508 0.81460417
0.93444697 0.55125018 0.32218932
0.94569350 0.55009374 0.81163559
0.06795656 0.05978046 0.18765396
0.05736430 0.06097276 0.69115726
0.05493268 0.56281034 0.20780144
0.06021376 0.56103352 0.69548271
0.55138128 0.06360213 0.18458292
0.55340592 0.08547635 0.68088836
0.56122607 0.56519057 0.19588582
0.55310634 0.56563210 0.69518024
0.29624318 0.18649682 0.31586710
0.31090397 0.18630030 0.81781402
0.30875695 0.68723069 0.31426135
0.31382198 0.70415370 0.81735308
0.81666537 0.18646070 0.29744295
0.81093371 0.19938029 0.81538602
0.80471735 0.69385008 0.30346667
0.80355070 0.69978441 0.80641154
0.37314759 0.13248555 0.62687712
0.37516418 0.61919811 0.12871097
0.86903771 0.11841116 0.12282560
0.86992416 0.62451471 0.13385265
0.88323538 0.61980178 0.63240421
0.18869436 0.44531585 0.44940102
0.18969070 0.43799220 0.95898222
0.18635578 0.94015448 0.44993356
0.19090877 0.93597205 0.94185342
0.69372386 0.43466499 0.43642671
0.68727678 0.43816448 0.95433628
0.68934907 0.95466772 0.44059920
0.69693596 0.93665731 0.92923134
0.44293125 0.30745162 0.07143086
0.42903105 0.31236511 0.54863519
0.44686108 0.80822621 0.05516229
0.44891293 0.80736232 0.56073683
0.93662664 0.31297354 0.05737035
0.93577710 0.31545714 0.57580298
0.94456077 0.79369086 0.05868936
0.93422405 0.80197242 0.56601073
0.05377399 0.31707348 0.46236721
0.05932470 0.32077796 0.94615567
0.04455336 0.80546711 0.44047986
0.05665402 0.79928546 0.93493220
0.55057770 0.32692450 0.43680126
0.55964713 0.32422528 0.95784532
0.55389580 0.80258349 0.43565664
0.56359524 0.80741735 0.93785223
0.31673613 0.44420696 0.06554702
0.30674241 0.43581876 0.56008071
0.31030190 0.93962190 0.06159907
0.30867917 0.93391912 0.56498552
0.82299698 0.44945592 0.05453380
0.79774764 0.44713869 0.56759588
0.80690905 0.94291161 0.05512483
0.80716647 0.94591412 0.55495922
0.37297062 0.37787535 0.88121144
0.36600423 0.86814062 0.38381603
0.87620573 0.36395102 0.38453908
0.86740474 0.87400334 0.37967373
0.25079564 0.99351978 0.99966422
0.25056441 0.99433270 0.50765355
0.24993001 0.49883214 0.01298626
0.25801992 0.50122136 0.50033607
0.74896229 0.99787602 0.99031886
0.74981638 0.00969684 0.50057291
0.75095173 0.50062620 0.00221868
0.74150400 0.49809565 0.49978327
0.24901622 0.24714908 0.25100854
0.25562153 0.24710925 0.75771761
0.25066596 0.74365197 0.25296754
0.25386133 0.75498250 0.75285192
0.75771853 0.24797176 0.24409336
0.75041856 0.24990601 0.75381874
0.74610713 0.75682312 0.24827698
0.74201452 0.75001733 0.74610155
0.00635738 0.99933601 0.24104762
0.00423641 0.99944319 0.75325537
0.99622113 0.49908598 0.26114373
0.00650893 0.49499632 0.75116036
0.49838754 0.00020928 0.24402983
0.51150359 0.01222070 0.73844610
0.50471895 0.50537886 0.25729665
0.50350317 0.50025534 0.75537836
0.00016392 0.25889797 0.00037507
0.99937955 0.25747945 0.52204866
0.00357570 0.73945844 0.99631379
0.99116644 0.74601926 0.50326568
0.50790707 0.25599248 0.01147681
0.49286649 0.26186078 0.48799733
0.49946981 0.74936676 0.99077233
0.49730915 0.74595697 0.49846558
Direct configuration=      2
0.01706491 0.34520117 0.16323056
0.99132377 0.08503119 0.59623774
0.00746972 0.60628406 0.40281885
0.96473729 0.63702048 0.73159278
0.71630907 0.03636874 0.34999581
0.58399421 0.16235712 0.76437169
0.70564878 0.62080209 0.27680614
0.78574936 0.39051187 0.76445711
0.16397396 0.22810045 0.42399988
0.10344760 0.10981361 0.99258662
0.21153060 0.38184603 0.21683052
0.34126184 0.49250095 0.85192395
0.61240335 0.22125203 0.28282853
0.66804216 0.01038620 0.83233727
0.53638898 0.46373174 0.62001872
0.40762944 0.91225392 0.98836986
0.32987939 0.98728595 0.35570246
0.32466839 0.93045415 0.69925061
0.15636817 0.50010657 0.17037655
0.35407676 0.49890555 0.67040770
0.57761573 0.02151589 0.40333451
0.53981461 0.11046398 0.94867632
0.65621780 0.75365615 0.40669290
0.58333777 0.42137854 0.02910401
0.97311224 0.29463018 0.36480710
0.01981109 0.16787196 0.84377343
0.08764095 0.66801810 0.27751477
0.11336030 0.72399866 0.84951691
0.64481254 0.08169225 0.24802995
0.78017748 0.10790059 0.74676142
0.57737745 0.58589248 0.47915916
0.85364200 0.84021617 0.99001920
0.22416178 0.10623602 0.27247350
0.02114037 0.84069060 0.15173050
0.12751589 0.71861657 0.44778340
0.01776158 0.84352239 0.66105965
0.73416262 0.19115356 0.38648390
0.69164160 0.30960518 0.92719370
0.84257346 0.76472907 0.40258268
0.52016679 0.60701318 0.89977889
0.08329916 0.16971947 0.25325019
0.04659664 0.02563220 0.88984934
0.14545766 0.50660316 0.33956387
0.88335322 0.72560276 0.20586417
0.50716029 0.15230999 0.35130618
0.84040099 0.00852605 0.65314241
0.65864569 0.49720966 0.33278274
0.69154283 0.50840194 0.85947283
0.17950188 0.54903696 0.68876055
0.11467605 0.55160002 0.47830874
0.15612405 0.89547126 0.24154172
0.01743560 0.09657501 0.40432508
0.65269941 0.23766358 0.05465576
0.62548848 0.37798968 0.72853014
0.53154909 0.63886938 0.30271879
0.68096869 0.89918132 0.72406118
0.17942381 0.27533273 0.08802417
0.16648418 0.23394291 0.58746541
0.30622360 0.69715590 0.94570245
0.16298315 0.90349089 0.73904416
0.73531084 0.15944674 0.90920774
0.53242819 0.30506659 0.63006795
0.58369587 0.77711255 0.15587452
0.52757115 0.86332620 0.70665832
0.17095031 0.51200848 0.84036337
0.21760569 0.35521307 0.52406368
0.22185342 0.97125051 0.14827298
0.13572419 0.85118171 0.51440714
0.52958400 0.36280614 0.19540680
0.63709626 0.29576478 0.51927568
0.52607786 0.94081286 0.12360266
0.65320975 0.74030018 0.57849643
0.09368844 0.42502905 0.01311726
0.86503206 0.28952625 0.47206331
0.08623383 0.97847862 0.09257161
0.12604925 0.97646528 0.61893931
0.47843605 0.34589284 0.34103939
0.65863771 0.57996016 0.74874497
0.73832753 0.83790569 0.09021210
0.59963477 0.71614936 0.78067457
0.35817767 0.47077332 0.29561492
0.99435010 0.59590477 0.59735144
0.97765777 0.86114671 0.34710454
0.26198802 0.89617528 0.85145557
0.79045664 0.53371843 0.13970672
0.58901503 0.42114417 0.50124973
0.64149977 0.76980553 0.01538373
0.54062084 0.88396537 0.53942070
0.24418508 0.15112884 0.91518904
0.23770448 0.40443165 0.67228174
0.35267451 0.04349844 0.21783556
0.14306531 0.74817528 0.61356698
0.65276683 0.50540047 0.16773895
0.70139970 0.47615046 0.63698557
0.64893448 0.91255069 0.23456972
0.92492268 0.24903134 0.67717171
0.36571304 0.22052748 0.03868142
0.48360253 0.15801906 0.62945260
0.38536091 0.64355974 0.24247549
0.30236142 0.60872187 0.74276482
0.91343945 0.16180950 0.22632673
0.64195646 0.15673507 0.47776235
0.98737821 0.65467748 0.14853434
0.85516769 0.51026257 0.66849467
0.33151409 0.89354486 0.26750831
0.40202149 0.15312870 0.73891928
0.16157254 0.65384792 0.99375962
0.41769668 0.73188079 0.66563635
0.69922425 0.97359576 0.12879237
0.88795553 0.10858052 0.50127914
0.87072667 0.70023863 0.03429591
0.84487835 0.71138906 0.54610210
0.47365676 0.08442970 0.09446701
0.40399419 0.02759818 0.58888312
0.35043252 0.73439723 0.09562678
0.24259634 0.65644397 0.42839333
0.99071567 0.11362815 0.09963528
0.02470236 0.38610672 0.59850111
0.75549547 0.67076585 0.09574106
0.79259060 0.61779672 0.71230234
0.16345034 0.00446805 0.34930695
0.35425714 0.00037227 0.83363602
0.25673795 0.64517011 0.10636641
0.41630664 0.33410100 0.77586917
0.86757600 0.22665249 0.06310079
0.73851718 0.84740671 0.57357314
0.74185042 0.67059153 0.91274793
0.88101212 0.55797952 0.52880091
0.40787738 0.39873775 0.00132685
0.27533314 0.08190664 0.67824478
0.48224859 0.64880969 0.14658653
0.41618902 0.59831035 0.52362018
0.77342252 0.13473782 0.05073551
0.76265555 0.17836503 0.58351649
0.01217180 0.58204861 0.91859532
0.89633352 0.74012410 0.67188892
0.25451972 0.15128014 0.08592923
0.29211749 0.13764566 0.53477608
0.24967412 0.83940537 0.09941522
0.24420875 0.83594425 0.59836850
0.89153820 0.04063202 0.02762901
0.10075052 0.32573097 0.73847589
0.22324363 0.60070780 0.29144239
0.72577494 0.64369947 0.46590383
0.84458939 0.59100871 0.24590323
0.27887219 0.38474078 0.80777425
0.26770046 0.66848690 0.58606634
0.15450952 0.83439128 0.00508594
0.82728716 0.47361603 0.34075309
0.15215508 0.24251910 0.91941879
0.77851913 0.11197817 0.20320226
0.84279688 0.99603623 0.84312887
0.25120208 0.40460309 0.35293300
0.34969752 0.26290392 0.90431333
0.38453327 0.93797599 0.47470902
0.42291381 0.77728562 0.84818947
0.74310374 0.33996252 0.58413375
0.91589486 0.41275696 0.98321249
0.88803618 0.99608619 0.38394305
0.97977355 0.83357428 0.84176905
0.32550549 0.25733248 0.41169794
0.15125940 0.09278251 0.76443452
0.35254046 0.78484445 0.48105827
0.84415836 0.49774662 0.83584214
0.96018164 0.44735642 0.39781960
0.84751173 0.26925423 0.91334830
0.75833431 0.86472294 0.42438514
0.75067410 0.82849313 0.90019475
0.40142457 0.41848136 0.48869231
0.39366712 0.22723747 0.20509909
0.25137380 0.84058751 0.41048445
0.40173273 0.57957573 0.02337141
0.76211667 0.34046452 0.40394692
0.99000193 0.35176763 0.84071119
0.80130709 0.90349744 0.28249040
0.83599703 0.89566614 0.75266260
0.34088796 0.24615238 0.59416421
0.27306393 0.35759454 0.96812148
0.48165069 0.89185627 0.39080332
0.59320909 0.91235942 0.00430801
0.72307940 0.39552832 0.22350941
0.75814694 0.34535383 0.06672878
0.90367944 0.90374210 0.49261108
0.84654343 0.00459537 0.16507523
0.33166560 0.51209525 0.15754594
0.47377433 0.44343235 0.88667519
0.40284025 0.76362651 0.33799417
0.20561122 0.02715338 0.86828668
0.88997952 0.35048910 0.26129948
0.92745043 0.52583312 0.09600354
0.14780626 0.75274295 0.11417520
0.67393875 0.03576369 0.66962279
0.36953095 0.61997201 0.63442347
0.12304117 0.61529566 0.88640515
0.62679272 0.85666571 0.62079245
0.87645230 0.38107690 0.87319057
0.36844080 0.13379325 0.12660098
0.36608820 0.38072096 0.37899826
0.63159730 0.62736914 0.37549996
0.12650154 0.38235146 0.12733854
0.13743000 0.35375234 0.62687427
0.63080438 0.62434666 0.85701723
0.86307672 0.87721275 0.86881933
0.12855651 0.12353279 0.35604556
0.63165488 0.11945788 0.86716197
0.63531111 0.39248323 0.13603507
0.87411619 0.12105528 0.61889670
0.37532366 0.88669175 0.87577629
0.01073180 0.03082271 0.00993315
0.96592000 0.02078564 0.48943320
0.99629338 0.49530617 0.00263499
0.99544463 0.52204460 0.49594893
0.49961687 0.99247441 0.01680440
0.49372515 0.97539146 0.48430679
0.48798135 0.48818911 0.99404067
0.49695595 0.49992000 0.51189290
0.98971959 0.25534083 0.24729451
0.00470700 0.26017583 0.76492830
0.99810328 0.74330523 0.22917364
0.98662827 0.75655304 0.74501665
0.50138615 0.26028552 0.25879371
0.49601608 0.24217655 0.72724028
0.47811118 0.72458924 0.24850048
0.49513449 0.76086978 0.75235996
0.25130600 0.99059406 0.26317736
0.24950390 0.99116368 0.76526405
0.24192769 0.48733290 0.26055970
0.26235639 0.49457292 0.75310819
0.74062225 0.00296335 0.23636896
0.75947427 0.99362801 0.74555359
0.74554558 0.51131012 0.25023573
0.75637764 0.50445063 0.74674773
0.25463222 0.23999013 0.99548863
0.25173647 0.24612198 0.50530508
0.23901823 0.74071347 0.03231277
0.23240956 0.75541209 0.50526993
0.76044612 0.24418140 0.99811127
0.74499723 0.25475332 0.49252670
0.76090640 0.75607385 0.00062591
0.74365766 0.75823863 0.49092960
0.43583912 0.20628047 0.43221747
0.44842529 0.20120047 0.94460139
0.43076085 0.69306507 0.44304533
0.43992975 0.69014747 0.94650402
0.94456517 0.19554577 0.43870711
0.94630654 0.20195378 0.94546341
0.92715548 0.69041479 0.45137558
0.94379336 0.68295691 0.94035687
0.18890815 0.05111653 0.06153136
0.20221407 0.05586036 0.57310814
0.18790375 0.55485036 0.06343099
0.19544592 0.56733382 0.56720146
0.68373032 0.05508696 0.04384787
0.69384077 0.07591638 0.55644445
0.69792529 0.56138625 0.06484435
0.67955782 0.55993517 0.54430301
0.31977493 0.04566600 0.45916951
0.30473425 0.05142952 0.94172265
0.31810705 0.55913357 0.45611721
0.30633660 0.56516611 0.94646832
0.79993705 0.06930422 0.43192740
0.80759982 0.06018607 0.93947597
0.80372055 0.55699193 0.43630954
0.79042340 0.55688334 0.92849022
0.06750501 0.20689502 0.05925827
0.06445935 0.17265389 0.55086698
0.06233364 0.68526000 0.05672179
0.05671978 0.68941045 0.55119847
0.55474656 0.17124719 0.05870170
0.55617142 0.20938748 0.54844802
0.55566398 0.69879503 0.06429719
0.55215477 0.67838382 0.55140451
0.12774460 0.12072257 0.87906650
0.12924217 0.61854078 0.38043749
0.62686040 0.12695246 0.36093371
0.43450628 0.44543210 0.19832441
0.45273008 0.43154390 0.70270594
0.42755552 0.94413501 0.19959643
0.45054227 0.95325315 0.67690318
0.94091015 0.44265936 0.19176308
0.95231937 0.43765730 0.68557600
0.94791012 0.94109838 0.19070463
0.93657973 0.93823511 0.69237882
0.19333678 0.30211002 0.31051979
0.19254919 0.30067995 0.81538554
0.18367402 0.80276768 0.31536799
0.19504492 0.80510058 0.80747617
0.69597302 0.30459717 0.30305939
0.69737882 0.31533474 0.80235058
0.69440591 0.82391484 0.31096193
0.68098400 0.80633109 0.80192373
0.30038323 0.30743674 0.18303164
0.31076972 0.30876441 0.70466546
0.30725902 0.79807240 0.20044119
0.31742742 0.80587572 0.69115950
0.80548759 0.31350440 0.17965306
0.81237842 0.30264105 0.68635750
0.80640838 0.81720542 0.19147606
0.79493176 0.80908246 0.68076542
0.05109366 0.43538117 0.31367185
0.07357523 0.43583311 0.79736093
0.06116887 0.94571429 0.30807357
0.05538406 0.93154246 0.80793005
0.55736878 0.43575414 0.30006450
0.57346943 0.44428534 0.81512033
0.55481442 0.94420670 0.31023709
0.57449169 0.94717485 0.78111716
0.13637671 0.87427374 0.12476061
0.13097631 0.86278834 0.63041649
0.62621825 0.38097770 0.61045383
0.62870187 0.87817939 0.11616059
0.18815506 0.18971220 0.18936118
0.19898416 0.18343690 0.69690501
0.18762198 0.68115257 0.20539565
0.20919990 0.68215197 0.69774970
0.68836982 0.19421012 0.18177533
0.69865325 0.18381752 0.69740332
0.68167922 0.70574761 0.19337889
0.68639885 0.68581910 0.68956754
0.43395090 0.05915588 0.31470505
0.45680705 0.06354903 0.80501947
0.44191483 0.55692643 0.31865728
0.44784740 0.54890388 0.82028356
0.94732812 0.06616276 0.30272348
0.94840854 0.05550090 0.81298189
0.93310150 0.54873031 0.31940867
0.95016705 0.54754684 0.81075622
0.06306291 0.06207533 0.18736783
0.05909302 0.04865962 0.69067914
0.05391542 0.56284490 0.20508318
0.06024751 0.56600804 0.69492773
0.54546375 0.05223943 0.18848524
0.56143445 0.07684657 0.67942806
0.55618842 0.56746592 0.20324289
0.55601894 0.55689469 0.69278345
0.31378636 0.18807935 0.29709302
0.31349530 0.18680965 0.81616548
0.30296564 0.68814046 0.32141564
0.32321217 0.70040713 0.81597114
0.81250859 0.18946045 0.29104361
0.81291982 0.19774903 0.81518946
0.80102725 0.69702415 0.30465169
0.80658716 0.69889361 0.80316328
0.37083920 0.13263831 0.62717107
0.36996602 0.62121641 0.12870497
0.87073712 0.11750447 0.11999216
0.86877728 0.62762626 0.13409444
0.88339195 0.62467760 0.63248781
0.18980432 0.45114256 0.45350327
0.19324678 0.44470775 0.94140485
0.19079189 0.94096102 0.45389423
0.18843256 0.93531879 0.94391570
0.69028794 0.43678093 0.43459768
0.68495501 0.43513859 0.95878495
0.68120669 0.95718676 0.44073349
0.69365154 0.93641547 0.92994431
0.44766629 0.30206941 0.07568630
0.43658603 0.31947649 0.55428856
0.43548340 0.81361784 0.05996631
0.44544402 0.80400417 0.56370867
0.94674615 0.31891468 0.06014010
0.95002194 0.29705715 0.56621585
0.94665988 0.79977813 0.05474842
0.93403263 0.80507982 0.56813046
0.06594885 0.30360968 0.44951301
0.06134693 0.32304827 0.94157200
0.04400177 0.80950105 0.44263649
0.06163229 0.79746515 0.93267307
0.55171140 0.32476265 0.43500236
0.57729976 0.31050766 0.97699750
0.55392346 0.80618678 0.44312470
0.55298054 0.80932663 0.94266178
0.30600268 0.43970649 0.05914304
0.30486503 0.43887935 0.56869894
0.30872511 0.94113687 0.06344781
0.31306700 0.93048129 0.56976143
0.82005100 0.45052557 0.05485047
0.80091671 0.44977121 0.56076939
0.80645296 0.94238768 0.05318563
0.80201662 0.95008810 0.55201756
0.37084373 0.37793155 0.88416771
0.36515894 0.86850791 0.38284754
0.87555709 0.36776191 0.37638231
0.86734735 0.88077368 0.38175246
0.24871984 0.99280870 0.00133264
0.25367212 0.99306201 0.51419304
0.25009524 0.50247648 0.00301155
0.25398816 0.50632543 0.51125321
0.74564227 0.99737864 0.99090796
0.74457279 0.01277371 0.49619955
0.74892957 0.50145759 0.00156882
0.74341539 0.49966306 0.49381580
0.25069370 0.24848715 0.24661991
0.25297085 0.24305792 0.75772521
0.24467987 0.74617512 0.26001239
0.26081056 0.75039253 0.75405115
0.75201264 0.25027322 0.23812376
0.75447052 0.24934481 0.75062493
0.74507469 0.76189160 0.24907841
0.74303578 0.74936304 0.74564153
0.00437196 0.00327296 0.24608973
0.99868692 0.99311307 0.75114939
0.99624378 0.49731581 0.25707863
0.00914775 0.49458105 0.74647353
0.49003039 0.99998959 0.25521615
0.50912094 0.01117221 0.73697813
0.49660523 0.50223194 0.25369114
0.50877140 0.49714703 0.75782359
0.00578118 0.26198491 0.00020210
0.00916730 0.24148647 0.50394795
0.00409362 0.74086265 0.99492262
0.99048561 0.74952971 0.50384736
0.50612438 0.24792139 0.01329182
0.49204990 0.26420038 0.49010371
0.49509330 0.75531704 0.00469345
0.49694221 0.74434682 0.49960505
Direct configuration=      3
0.01415269 0.34612239 0.16216926
0.98427061 0.13273239 0.64542390
0.00887204 0.60701421 0.39469782
0.96433930 0.63250049 0.73606882
0.72434365 0.04080623 0.34950312
0.59018483 0.16549763 0.76163225
0.69790650 0.61698072 0.27586842
0.76702281 0.39485283 0.74951056
0.16546593 0.22656106 0.42406396
0.10485491 0.10690689 0.99394838
0.23949589 0.39625333 0.17424318
0.34545642 0.48697289 0.85069329
0.61659575 0.22168529 0.28602134
0.67190648 0.01695398 0.83282946
0.53201213 0.46388068 0.62469271
0.41098172 0.90697854 0.98946098
0.33288126 0.98601684 0.36307665
0.32360767 0.93461392 0.69592827
0.15083014 0.49839970 0.17092249
0.34940751 0.49844331 0.66361558
0.58601758 0.02393561 0.40322404
0.53206025 0.10622198 0.94541161
0.66197587 0.75566294 0.39961127
0.58854999 0.41145534 0.02438370
0.90969886 0.25366145 0.34880217
0.02318979 0.16711046 0.84429294
0.10672747 0.70795187 0.29478444
0.08932076 0.72478921 0.83772399
0.64858256 0.08552211 0.25141161
0.78234557 0.10779995 0.73101005
0.57672772 0.59207964 0.48293578
0.84810071 0.83199138 0.98162840
0.21425456 0.10419535 0.26792128
0.02380440 0.84194883 0.14214304
0.12736102 0.71414308 0.45726695
0.01779774 0.84487978 0.66347109
0.74059633 0.18504624 0.39336868
0.74950262 0.34059057 0.91615660
0.84088881 0.76268936 0.40012853
0.49627797 0.58859866 0.93201884
0.09922054 0.21840252 0.27426181
0.04517853 0.02681906 0.89197115
0.14662276 0.50955606 0.33900854
0.89742896 0.74205359 0.15506299
0.50946640 0.15439433 0.35057163
0.84016728 0.00045584 0.65259869
0.65922267 0.48780545 0.33116968
0.70361172 0.51945209 0.86246564
0.18873248 0.56036061 0.69569650
0.11398826 0.55414552 0.47962373
0.15630740 0.89702215 0.24132746
0.01200575 0.09374747 0.39383421
0.64687146 0.22517524 0.98685963
0.61305207 0.37136733 0.73395892
0.53370424 0.63761015 0.29712623
0.67481634 0.90082347 0.73303629
0.16928719 0.26990845 0.08291806
0.16347812 0.24164082 0.59046088
0.24414348 0.73933354 0.90592405
0.16193489 0.90757812 0.73746739
0.74301086 0.16213254 0.89636650
0.52828638 0.30414494 0.62929876
0.59769703 0.79178474 0.19885218
0.49926640 0.86990431 0.75484828
0.17768431 0.51401210 0.84472354
0.21523719 0.35824484 0.52088366
0.22867526 0.96598602 0.14930598
0.13479412 0.85084948 0.51358525
0.52624388 0.35526879 0.18454889
0.63297607 0.29757869 0.52139965